<?xml version="1.0"?>
<VTKFile type="UnstructuredGrid"  version="0.1"  >
<UnstructuredGrid>
<Piece  NumberOfPoints="2601" NumberOfCells="5000">
<Points>
<DataArray  type="Float64"  NumberOfComponents="3"  format="ascii">0 0 0  0.03 0 0  0.06 0 0  0.09 0 0  0.12 0 0  0.15 0 0  0.18 0 0  0.21 0 0  0.24 0 0  0.27 0 0  0.3 0 0  0.33 0 0  0.36 0 0  0.39 0 0  0.42 0 0  0.45 0 0  0.48 0 0  0.51 0 0  0.54 0 0  0.57 0 0  0.6 0 0  0.63 0 0  0.66 0 0  0.6899999999999999 0 0  0.72 0 0  0.75 0 0  0.78 0 0  0.8100000000000001 0 0  0.84 0 0  0.87 0 0  0.9 0 0  0.93 0 0  0.96 0 0  0.99 0 0  1.02 0 0  1.05 0 0  1.08 0 0  1.11 0 0  1.14 0 0  1.17 0 0  1.2 0 0  1.23 0 0  1.26 0 0  1.29 0 0  1.32 0 0  1.35 0 0  1.38 0 0  1.41 0 0  1.44 0 0  1.47 0 0  1.5 0 0  0 0.02 0  0.03 0.02 0  0.06 0.02 0  0.09 0.02 0  0.12 0.02 0  0.15 0.02 0  0.18 0.02 0  0.21 0.02 0  0.24 0.02 0  0.27 0.02 0  0.3 0.02 0  0.33 0.02 0  0.36 0.02 0  0.39 0.02 0  0.42 0.02 0  0.45 0.02 0  0.48 0.02 0  0.51 0.02 0  0.54 0.02 0  0.57 0.02 0  0.6 0.02 0  0.63 0.02 0  0.66 0.02 0  0.6899999999999999 0.02 0  0.72 0.02 0  0.75 0.02 0  0.78 0.02 0  0.8100000000000001 0.02 0  0.84 0.02 0  0.87 0.02 0  0.9 0.02 0  0.93 0.02 0  0.96 0.02 0  0.99 0.02 0  1.02 0.02 0  1.05 0.02 0  1.08 0.02 0  1.11 0.02 0  1.14 0.02 0  1.17 0.02 0  1.2 0.02 0  1.23 0.02 0  1.26 0.02 0  1.29 0.02 0  1.32 0.02 0  1.35 0.02 0  1.38 0.02 0  1.41 0.02 0  1.44 0.02 0  1.47 0.02 0  1.5 0.02 0  0 0.04 0  0.03 0.04 0  0.06 0.04 0  0.09 0.04 0  0.12 0.04 0  0.15 0.04 0  0.18 0.04 0  0.21 0.04 0  0.24 0.04 0  0.27 0.04 0  0.3 0.04 0  0.33 0.04 0  0.36 0.04 0  0.39 0.04 0  0.42 0.04 0  0.45 0.04 0  0.48 0.04 0  0.51 0.04 0  0.54 0.04 0  0.57 0.04 0  0.6 0.04 0  0.63 0.04 0  0.66 0.04 0  0.6899999999999999 0.04 0  0.72 0.04 0  0.75 0.04 0  0.78 0.04 0  0.8100000000000001 0.04 0  0.84 0.04 0  0.87 0.04 0  0.9 0.04 0  0.93 0.04 0  0.96 0.04 0  0.99 0.04 0  1.02 0.04 0  1.05 0.04 0  1.08 0.04 0  1.11 0.04 0  1.14 0.04 0  1.17 0.04 0  1.2 0.04 0  1.23 0.04 0  1.26 0.04 0  1.29 0.04 0  1.32 0.04 0  1.35 0.04 0  1.38 0.04 0  1.41 0.04 0  1.44 0.04 0  1.47 0.04 0  1.5 0.04 0  0 0.06 0  0.03 0.06 0  0.06 0.06 0  0.09 0.06 0  0.12 0.06 0  0.15 0.06 0  0.18 0.06 0  0.21 0.06 0  0.24 0.06 0  0.27 0.06 0  0.3 0.06 0  0.33 0.06 0  0.36 0.06 0  0.39 0.06 0  0.42 0.06 0  0.45 0.06 0  0.48 0.06 0  0.51 0.06 0  0.54 0.06 0  0.57 0.06 0  0.6 0.06 0  0.63 0.06 0  0.66 0.06 0  0.6899999999999999 0.06 0  0.72 0.06 0  0.75 0.06 0  0.78 0.06 0  0.8100000000000001 0.06 0  0.84 0.06 0  0.87 0.06 0  0.9 0.06 0  0.93 0.06 0  0.96 0.06 0  0.99 0.06 0  1.02 0.06 0  1.05 0.06 0  1.08 0.06 0  1.11 0.06 0  1.14 0.06 0  1.17 0.06 0  1.2 0.06 0  1.23 0.06 0  1.26 0.06 0  1.29 0.06 0  1.32 0.06 0  1.35 0.06 0  1.38 0.06 0  1.41 0.06 0  1.44 0.06 0  1.47 0.06 0  1.5 0.06 0  0 0.08 0  0.03 0.08 0  0.06 0.08 0  0.09 0.08 0  0.12 0.08 0  0.15 0.08 0  0.18 0.08 0  0.21 0.08 0  0.24 0.08 0  0.27 0.08 0  0.3 0.08 0  0.33 0.08 0  0.36 0.08 0  0.39 0.08 0  0.42 0.08 0  0.45 0.08 0  0.48 0.08 0  0.51 0.08 0  0.54 0.08 0  0.57 0.08 0  0.6 0.08 0  0.63 0.08 0  0.66 0.08 0  0.6899999999999999 0.08 0  0.72 0.08 0  0.75 0.08 0  0.78 0.08 0  0.8100000000000001 0.08 0  0.84 0.08 0  0.87 0.08 0  0.9 0.08 0  0.93 0.08 0  0.96 0.08 0  0.99 0.08 0  1.02 0.08 0  1.05 0.08 0  1.08 0.08 0  1.11 0.08 0  1.14 0.08 0  1.17 0.08 0  1.2 0.08 0  1.23 0.08 0  1.26 0.08 0  1.29 0.08 0  1.32 0.08 0  1.35 0.08 0  1.38 0.08 0  1.41 0.08 0  1.44 0.08 0  1.47 0.08 0  1.5 0.08 0  0 0.1 0  0.03 0.1 0  0.06 0.1 0  0.09 0.1 0  0.12 0.1 0  0.15 0.1 0  0.18 0.1 0  0.21 0.1 0  0.24 0.1 0  0.27 0.1 0  0.3 0.1 0  0.33 0.1 0  0.36 0.1 0  0.39 0.1 0  0.42 0.1 0  0.45 0.1 0  0.48 0.1 0  0.51 0.1 0  0.54 0.1 0  0.57 0.1 0  0.6 0.1 0  0.63 0.1 0  0.66 0.1 0  0.6899999999999999 0.1 0  0.72 0.1 0  0.75 0.1 0  0.78 0.1 0  0.8100000000000001 0.1 0  0.84 0.1 0  0.87 0.1 0  0.9 0.1 0  0.93 0.1 0  0.96 0.1 0  0.99 0.1 0  1.02 0.1 0  1.05 0.1 0  1.08 0.1 0  1.11 0.1 0  1.14 0.1 0  1.17 0.1 0  1.2 0.1 0  1.23 0.1 0  1.26 0.1 0  1.29 0.1 0  1.32 0.1 0  1.35 0.1 0  1.38 0.1 0  1.41 0.1 0  1.44 0.1 0  1.47 0.1 0  1.5 0.1 0  0 0.12 0  0.03 0.12 0  0.06 0.12 0  0.09 0.12 0  0.12 0.12 0  0.15 0.12 0  0.18 0.12 0  0.21 0.12 0  0.24 0.12 0  0.27 0.12 0  0.3 0.12 0  0.33 0.12 0  0.36 0.12 0  0.39 0.12 0  0.42 0.12 0  0.45 0.12 0  0.48 0.12 0  0.51 0.12 0  0.54 0.12 0  0.57 0.12 0  0.6 0.12 0  0.63 0.12 0  0.66 0.12 0  0.6899999999999999 0.12 0  0.72 0.12 0  0.75 0.12 0  0.78 0.12 0  0.8100000000000001 0.12 0  0.84 0.12 0  0.87 0.12 0  0.9 0.12 0  0.93 0.12 0  0.96 0.12 0  0.99 0.12 0  1.02 0.12 0  1.05 0.12 0  1.08 0.12 0  1.11 0.12 0  1.14 0.12 0  1.17 0.12 0  1.2 0.12 0  1.23 0.12 0  1.26 0.12 0  1.29 0.12 0  1.32 0.12 0  1.35 0.12 0  1.38 0.12 0  1.41 0.12 0  1.44 0.12 0  1.47 0.12 0  1.5 0.12 0  0 0.14 0  0.03 0.14 0  0.06 0.14 0  0.09 0.14 0  0.12 0.14 0  0.15 0.14 0  0.18 0.14 0  0.21 0.14 0  0.24 0.14 0  0.27 0.14 0  0.3 0.14 0  0.33 0.14 0  0.36 0.14 0  0.39 0.14 0  0.42 0.14 0  0.45 0.14 0  0.48 0.14 0  0.51 0.14 0  0.54 0.14 0  0.57 0.14 0  0.6 0.14 0  0.63 0.14 0  0.66 0.14 0  0.6899999999999999 0.14 0  0.72 0.14 0  0.75 0.14 0  0.78 0.14 0  0.8100000000000001 0.14 0  0.84 0.14 0  0.87 0.14 0  0.9 0.14 0  0.93 0.14 0  0.96 0.14 0  0.99 0.14 0  1.02 0.14 0  1.05 0.14 0  1.08 0.14 0  1.11 0.14 0  1.14 0.14 0  1.17 0.14 0  1.2 0.14 0  1.23 0.14 0  1.26 0.14 0  1.29 0.14 0  1.32 0.14 0  1.35 0.14 0  1.38 0.14 0  1.41 0.14 0  1.44 0.14 0  1.47 0.14 0  1.5 0.14 0  0 0.16 0  0.03 0.16 0  0.06 0.16 0  0.09 0.16 0  0.12 0.16 0  0.15 0.16 0  0.18 0.16 0  0.21 0.16 0  0.24 0.16 0  0.27 0.16 0  0.3 0.16 0  0.33 0.16 0  0.36 0.16 0  0.39 0.16 0  0.42 0.16 0  0.45 0.16 0  0.48 0.16 0  0.51 0.16 0  0.54 0.16 0  0.57 0.16 0  0.6 0.16 0  0.63 0.16 0  0.66 0.16 0  0.6899999999999999 0.16 0  0.72 0.16 0  0.75 0.16 0  0.78 0.16 0  0.8100000000000001 0.16 0  0.84 0.16 0  0.87 0.16 0  0.9 0.16 0  0.93 0.16 0  0.96 0.16 0  0.99 0.16 0  1.02 0.16 0  1.05 0.16 0  1.08 0.16 0  1.11 0.16 0  1.14 0.16 0  1.17 0.16 0  1.2 0.16 0  1.23 0.16 0  1.26 0.16 0  1.29 0.16 0  1.32 0.16 0  1.35 0.16 0  1.38 0.16 0  1.41 0.16 0  1.44 0.16 0  1.47 0.16 0  1.5 0.16 0  0 0.18 0  0.03 0.18 0  0.06 0.18 0  0.09 0.18 0  0.12 0.18 0  0.15 0.18 0  0.18 0.18 0  0.21 0.18 0  0.24 0.18 0  0.27 0.18 0  0.3 0.18 0  0.33 0.18 0  0.36 0.18 0  0.39 0.18 0  0.42 0.18 0  0.45 0.18 0  0.48 0.18 0  0.51 0.18 0  0.54 0.18 0  0.57 0.18 0  0.6 0.18 0  0.63 0.18 0  0.66 0.18 0  0.6899999999999999 0.18 0  0.72 0.18 0  0.75 0.18 0  0.78 0.18 0  0.8100000000000001 0.18 0  0.84 0.18 0  0.87 0.18 0  0.9 0.18 0  0.93 0.18 0  0.96 0.18 0  0.99 0.18 0  1.02 0.18 0  1.05 0.18 0  1.08 0.18 0  1.11 0.18 0  1.14 0.18 0  1.17 0.18 0  1.2 0.18 0  1.23 0.18 0  1.26 0.18 0  1.29 0.18 0  1.32 0.18 0  1.35 0.18 0  1.38 0.18 0  1.41 0.18 0  1.44 0.18 0  1.47 0.18 0  1.5 0.18 0  0 0.2 0  0.03 0.2 0  0.06 0.2 0  0.09 0.2 0  0.12 0.2 0  0.15 0.2 0  0.18 0.2 0  0.21 0.2 0  0.24 0.2 0  0.27 0.2 0  0.3 0.2 0  0.33 0.2 0  0.36 0.2 0  0.39 0.2 0  0.42 0.2 0  0.45 0.2 0  0.48 0.2 0  0.51 0.2 0  0.54 0.2 0  0.57 0.2 0  0.6 0.2 0  0.63 0.2 0  0.66 0.2 0  0.6899999999999999 0.2 0  0.72 0.2 0  0.75 0.2 0  0.78 0.2 0  0.8100000000000001 0.2 0  0.84 0.2 0  0.87 0.2 0  0.9 0.2 0  0.93 0.2 0  0.96 0.2 0  0.99 0.2 0  1.02 0.2 0  1.05 0.2 0  1.08 0.2 0  1.11 0.2 0  1.14 0.2 0  1.17 0.2 0  1.2 0.2 0  1.23 0.2 0  1.26 0.2 0  1.29 0.2 0  1.32 0.2 0  1.35 0.2 0  1.38 0.2 0  1.41 0.2 0  1.44 0.2 0  1.47 0.2 0  1.5 0.2 0  0 0.22 0  0.03 0.22 0  0.06 0.22 0  0.09 0.22 0  0.12 0.22 0  0.15 0.22 0  0.18 0.22 0  0.21 0.22 0  0.24 0.22 0  0.27 0.22 0  0.3 0.22 0  0.33 0.22 0  0.36 0.22 0  0.39 0.22 0  0.42 0.22 0  0.45 0.22 0  0.48 0.22 0  0.51 0.22 0  0.54 0.22 0  0.57 0.22 0  0.6 0.22 0  0.63 0.22 0  0.66 0.22 0  0.6899999999999999 0.22 0  0.72 0.22 0  0.75 0.22 0  0.78 0.22 0  0.8100000000000001 0.22 0  0.84 0.22 0  0.87 0.22 0  0.9 0.22 0  0.93 0.22 0  0.96 0.22 0  0.99 0.22 0  1.02 0.22 0  1.05 0.22 0  1.08 0.22 0  1.11 0.22 0  1.14 0.22 0  1.17 0.22 0  1.2 0.22 0  1.23 0.22 0  1.26 0.22 0  1.29 0.22 0  1.32 0.22 0  1.35 0.22 0  1.38 0.22 0  1.41 0.22 0  1.44 0.22 0  1.47 0.22 0  1.5 0.22 0  0 0.24 0  0.03 0.24 0  0.06 0.24 0  0.09 0.24 0  0.12 0.24 0  0.15 0.24 0  0.18 0.24 0  0.21 0.24 0  0.24 0.24 0  0.27 0.24 0  0.3 0.24 0  0.33 0.24 0  0.36 0.24 0  0.39 0.24 0  0.42 0.24 0  0.45 0.24 0  0.48 0.24 0  0.51 0.24 0  0.54 0.24 0  0.57 0.24 0  0.6 0.24 0  0.63 0.24 0  0.66 0.24 0  0.6899999999999999 0.24 0  0.72 0.24 0  0.75 0.24 0  0.78 0.24 0  0.8100000000000001 0.24 0  0.84 0.24 0  0.87 0.24 0  0.9 0.24 0  0.93 0.24 0  0.96 0.24 0  0.99 0.24 0  1.02 0.24 0  1.05 0.24 0  1.08 0.24 0  1.11 0.24 0  1.14 0.24 0  1.17 0.24 0  1.2 0.24 0  1.23 0.24 0  1.26 0.24 0  1.29 0.24 0  1.32 0.24 0  1.35 0.24 0  1.38 0.24 0  1.41 0.24 0  1.44 0.24 0  1.47 0.24 0  1.5 0.24 0  0 0.26 0  0.03 0.26 0  0.06 0.26 0  0.09 0.26 0  0.12 0.26 0  0.15 0.26 0  0.18 0.26 0  0.21 0.26 0  0.24 0.26 0  0.27 0.26 0  0.3 0.26 0  0.33 0.26 0  0.36 0.26 0  0.39 0.26 0  0.42 0.26 0  0.45 0.26 0  0.48 0.26 0  0.51 0.26 0  0.54 0.26 0  0.57 0.26 0  0.6 0.26 0  0.63 0.26 0  0.66 0.26 0  0.6899999999999999 0.26 0  0.72 0.26 0  0.75 0.26 0  0.78 0.26 0  0.8100000000000001 0.26 0  0.84 0.26 0  0.87 0.26 0  0.9 0.26 0  0.93 0.26 0  0.96 0.26 0  0.99 0.26 0  1.02 0.26 0  1.05 0.26 0  1.08 0.26 0  1.11 0.26 0  1.14 0.26 0  1.17 0.26 0  1.2 0.26 0  1.23 0.26 0  1.26 0.26 0  1.29 0.26 0  1.32 0.26 0  1.35 0.26 0  1.38 0.26 0  1.41 0.26 0  1.44 0.26 0  1.47 0.26 0  1.5 0.26 0  0 0.28 0  0.03 0.28 0  0.06 0.28 0  0.09 0.28 0  0.12 0.28 0  0.15 0.28 0  0.18 0.28 0  0.21 0.28 0  0.24 0.28 0  0.27 0.28 0  0.3 0.28 0  0.33 0.28 0  0.36 0.28 0  0.39 0.28 0  0.42 0.28 0  0.45 0.28 0  0.48 0.28 0  0.51 0.28 0  0.54 0.28 0  0.57 0.28 0  0.6 0.28 0  0.63 0.28 0  0.66 0.28 0  0.6899999999999999 0.28 0  0.72 0.28 0  0.75 0.28 0  0.78 0.28 0  0.8100000000000001 0.28 0  0.84 0.28 0  0.87 0.28 0  0.9 0.28 0  0.93 0.28 0  0.96 0.28 0  0.99 0.28 0  1.02 0.28
[...]
<PointData  Scalars="ControlVisualisation"> 
<DataArray  type="Float64"  Name="ControlVisualisation"  format="ascii">1.1511942562414275e-03  7.6861712625918060e-04  7.7138784015452896e-04  7.7708216507696090e-04  7.8584266731439431e-04  7.9670492985376058e-04  8.0814931519572789e-04  8.1877312320853980e-04  8.2764959633754897e-04  8.3437356574339507e-04  8.3892749380102573e-04  8.4152149266410420e-04  8.4247880100350584e-04  8.4216282784860253e-04  8.4092966271773380e-04  8.3909925799266819e-04  8.3694141350366589e-04  8.3467200024911427e-04  8.3245536110357289e-04  8.3041023305170073e-04  8.2861760037223047e-04  8.2712930388291516e-04  8.2597632970648354e-04  8.2517588114949412e-04  8.2473671563960591e-04  8.2466264583174983e-04  8.2495435860006851e-04  8.2560972831497012e-04  8.2662265839126756e-04  8.2798031010042556e-04  8.2965851575232533e-04  8.3161533510653894e-04  8.3378309331928681e-04  8.3605963156821147e-04  8.3829976587787103e-04  8.4030813884014945e-04  8.4183510397251482e-04  8.4257820443041766e-04  8.4219276944797958e-04  8.4031593291106319e-04  8.3660479897114989e-04  8.3079563510097968e-04  8.2279805261468888e-04  8.1284172792356671e-04  8.0163036494447374e-04  7.9036130347331078e-04  7.8053276561501920e-04  7.7346055147609115e-04  7.6954128347816791e-04  7.6799945333617925e-04  2.2944920850347535e-03  7.6818756772792005e-04  3.8492630975741076e-04  3.8768223488117753e-04  3.9380745294223323e-04  4.0388409019956377e-04  4.1724544366579215e-04  4.3230364859999466e-04  4.4720951342743989e-04  4.6041013678498310e-04  4.7094150908865340e-04  4.7843184833983504e-04  4.8295646704329628e-04  4.8487870137485631e-04  4.8471401085036642e-04  4.8302051531756100e-04  4.8032252382878014e-04  4.7706834443538189e-04  4.7361491309881934e-04  4.7022931704485040e-04  4.6709946057973300e-04  4.6434894383956212e-04  4.6205304633530964e-04  4.6025365347077818e-04  4.5897166510123794e-04  4.5821619971560175e-04  4.5799062112529136e-04  4.5829581362439480e-04  4.5913113637311722e-04  4.6049320779488018e-04  4.6237229822568103e-04  4.6474585512880774e-04  4.6756875251117785e-04  4.7076032757422889e-04  4.7418899850984025e-04  4.7765597211290700e-04  4.8088018062971154e-04  4.8348817213023890e-04  4.8501511187895249e-04  4.8492623928449434e-04  4.8266657882297396e-04  4.7774042733525886e-04  4.6982125262641261e-04  4.5888961910127207e-04  4.4539384838781295e-04  4.3039093425988766e-04  4.1547513745794970e-04  4.0244148223063831e-04  3.9281489964081373e-04  3.8717872822987192e-04  3.8476026674351995e-04  7.6791238488968614e-04  7.6902058215640482e-04  3.8579264217887733e-04  3.8938860087740632e-04  3.9724157733272666e-04  4.0990794475634492e-04  4.2645401324745993e-04  4.4501066076482835e-04  4.6338001197192985e-04  4.7966212149254525e-04  4.9265630882975014e-04  5.0186437211163174e-04  5.0732963220719463e-04  5.0947932449170257e-04  5.0896576306686914e-04  5.0651392898236390e-04  5.0280904380969535e-04  4.9843511711419668e-04  4.9385312977427731e-04  4.8940327450666340e-04  4.8531988523779979e-04  4.8175219560042605e-04  4.7878664928290075e-04  4.7646763314394000e-04  4.7481443443743622e-04  4.7383347284166589e-04  4.7352604397752534e-04  4.7389241942584541e-04  4.7493308431027841e-04  4.7664738953580787e-04  4.7902925201828104e-04  4.8205904867062912e-04  4.8569086334213432e-04  4.8983496668599121e-04  4.9433672866914960e-04  4.9895396535895077e-04  5.0333537031739951e-04  5.0700549991484936e-04  5.0936416868225989e-04  5.0971547693685849e-04  5.0733520687445824e-04  5.0159362079096458e-04  4.9209440533395205e-04  4.7882675891525915e-04  4.6231006335271371e-04  4.4383601112976353e-04  4.2537192800716440e-04  4.0898025884657344e-04  3.9647774011908500e-04  3.8889970314955481e-04  3.8559317940738369e-04  7.6851604315949324e-04  7.6982493802974265e-04  3.8703054726594199e-04  3.9206168656313271e-04  4.0191978796273649e-04  4.1640457811898773e-04  4.3411720187675883e-04  4.5323214385380054e-04  4.7155252920743018e-04  4.8729206149209674e-04  4.9951670236039411e-04  5.0790030916588564e-04  5.1253881747723704e-04  5.1388622401483518e-04  5.1262505898073073e-04  5.0950331959523679e-04  5.0521690433880388e-04  5.0035191042734799e-04  4.9536682338500592e-04  4.9059629918647794e-04  4.8626628606714568e-04  4.8251520157424068e-04  4.7941763164362412e-04  4.7700695418707986e-04  4.7529373578141204e-04  4.7427848883476625e-04  4.7395925295638363e-04  4.7433535406671854e-04  4.7540851655974168e-04  4.7718173481052273e-04  4.7965537332673124e-04  4.8281919830635387e-04  4.8663898049791090e-04  4.9103741254253653e-04  4.9587133840618735e-04  5.0090784806886164e-04  5.0580260436314738e-04  5.1008340405887657e-04  5.1314374317936546e-04  5.1426967836818230e-04  5.1271101427305908e-04  5.0784053882623641e-04  4.9920906199732689e-04  4.8673172271531539e-04  4.7069211271995402e-04  4.5216229949984944e-04  4.3311588815256422e-04  4.1546065473854608e-04  4.0091096621302705e-04  3.9116155346761690e-04  3.8657724844922249e-04  7.6935911013215031e-04  7.6967584193411145e-04  3.8857880228872313e-04  3.9748048826906875e-04  4.1173862848810561e-04  4.2873528967883519e-04  4.4708866210848365e-04  4.6608460247942515e-04  4.8334795693584162e-04  4.9743141993999695e-04  5.0797511973952117e-04  5.1481619979737599e-04  5.1803045244543631e-04  5.1808197101557219e-04  5.1568803411766685e-04  5.1161174921880790e-04  5.0654186481631426e-04  5.0104845003173261e-04  4.9557279346237068e-04  4.9043247509632248e-04  4.8583520057872518e-04  4.8189930900929980e-04  4.7867902683198377e-04  4.7618986555601018e-04  4.7442899168676308e-04  4.7338831955026899e-04  4.7306135433628610e-04  4.7344610595273539e-04  4.7454589690194360e-04  4.7636867137387909e-04  4.7892403315387909e-04  4.8221597647974730e-04  4.8622889784843688e-04  4.9090616851081310e-04  4.9612473242284061e-04  5.0167112386640203e-04  5.0722133396063635e-04  5.1231784969607281e-04  5.1636425907113830e-04  5.1864874282343744e-04  5.1841096459231116e-04  5.1499578228832339e-04  5.0789452133549393e-04  4.9721089370576726e-04  4.8295733162602650e-04  4.6529960481445917e-04  4.4639012078075298e-04  4.2818222216576591e-04  4.1073339943298678e-04  3.9603455636371115e-04  3.8741794754693142e-04  7.6966677040966186e-04  7.6988675456508317e-04  3.9273651035243092e-04  4.1936640723254278e-04  4.5657077182904377e-04  4.7631470093861258e-04  4.8406652402405300e-04  4.9256114694138221e-04  5.0248308659548455e-04  5.1190854222667940e-04  5.1947638145399138e-04  5.2407205311367740e-04  5.2527877621979743e-04  5.2352270878162498e-04  5.1957805890627648e-04  5.1421859552760888e-04  5.0810870057174944e-04  5.0178848791051773e-04  4.9567308367613901e-04  4.9005653311014836e-04  4.8512171712868931e-04  4.8095851184429554e-04  4.7759160647533916e-04  4.7501097186170726e-04  4.7319543967382956e-04  4.7212582998611396e-04  4.7179010944186126e-04  4.7218470467447324e-04  4.7331475737741877e-04  4.7519419889936607e-04  4.7784456387330173e-04  4.8128939459590302e-04  4.8553974776728397e-04  4.9056888573553736e-04  4.9628145651752441e-04  5.0249147497108740e-04  5.0890040805590120e-04  5.1507673159863015e-04  5.2047610299492723e-04  5.2435934572679557e-04  5.2591652081283760e-04  5.2444009574423452e-04  5.2023103752761417e-04  5.1373864939072340e-04  5.0651421411616513e-04  4.9862078386098856e-04  4.9272043423643260e-04  4.8215288962200466e-04  4.4644205524458199e-04  4.0857601204986746e-04  3.8877629041620613e-04  7.6902941900022987e-04  7.9489127713459591e-04  4.2427707655520182e-04  5.8307079173108769e-04  1.0068938352478767e-03  1.2880846779982640e-03  9.4121689032042354e-04  6.8077833499116322e-04  5.6977536022445163e-04  5.3875786869946583e-04  5.3576517972883241e-04  5.3624174785331922e-04  5.3455137694751018e-04  5.3034950028115748e-04  5.2438199438367694e-04  5.1738989132308960e-04  5.0997152311248488e-04  5.0261787533300488e-04  4.9570829772620673e-04  4.8950785279233862e-04  4.8416884524426135e-04  4.7974261417985310e-04  4.7621208593015167e-04  4.7353199922437378e-04  4.7165759495052092e-04  4.7055670550582370e-04  4.7021139042531762e-04  4.7061644367766832e-04  4.7177874506141898e-04  4.7371854841945599e-04  4.7647142283470791e-04  4.8008635408935670e-04  4.8461155889484655e-04  4.9006296765874012e-04  4.9637962947804036e-04  5.0340895033179308e-04  5.1088572562279155e-04  5.1845156505426441e-04  5.2560062202096586e-04  5.3149227162137594e-04  5.3571932997629980e-04  5.3772839214199153e-04  5.4091613549042033e-04  5.5210582972431920e-04  5.9570332910753490e-04  6.9211022692230236e-04  9.0775009815774379e-04  1.2773697092560076e-03  1.0584971181602390e-03  6.1605350954146770e-04  4.1637531252415811e-04  7.7217244598783348e-04  8.6265999522006965e-04  9.1697946913967541e-04  3.0684883608077057e-02  5.8940854369952889e-02  5.5299696388833933e-02  3.5467039325856514e-02  1.3111081320489305e-02  1.7615353553178379e-03  7.2573665628369313e-04  5.8067722244128906e-04  5.5495086338890629e-04  5.4653354700924951e-04  5.3866172986814212e-04  5.3009320123126075e-04  5.2109826059187252e-04  5.1209219779592158e-04  5.0349229072411722e-04  4.9563117818084319e-04  4.8874113033867432e-04  4.8294101766411222e-04  4.7823044919449996e-04  4.7453256737985095e-04  4.7175406410406397e-04  4.6982145807408131e-04  4.6868911137858393e-04  4.6833395166762765e-04  4.6874944276368820e-04  4.6994364981980518e-04  4.7194216848337985e-04  4.7479534853339179e-04  4.7858378284170724e-04  4.8340686224743109e-04  4.8934235840189424e-04  4.9637041689225205e-04  5.0437756893390734e-04  5.1315474314055413e-04  5.2242138121923664e-04  5.3164546159507095e-04  5.4074327565279529e-04  5.5004777233851661e-04  5.6235054896123387e-04  6.0902375213491011e-04  7.4981424191370913e-04  1.4821738518845744e-03  1.0252903581525979e-02  3.1681848514684689e-02  5.2340856439703834e-02  5.9473129515366478e-02  4.2993833782190578e-02  9.3224058517986071e-04  8.5099788833319849e-04  1.8395932138924023e-03  9.0296986512943642e-02  2.1142376833003435e-01  2.1620314401701074e-01  1.8301633430428912e-01  1.3559226459342669e-01  8.4778488585724232e-02  4.0976604023598422e-02  9.0052595164145013e-03  1.0400031146772612e-03  6.3432124236724333e-04  5.6784698397193605e-04  5.4933944433214891e-04  5.3679696185346751e-04  5.2533428802074454e-04  5.1442744330329351e-04  5.0435825407513734e-04  4.9538139656580161e-04  4.8769396566904774e-04  4.8138874027085776e-04  4.7639380703702280e-04  4.7254305904616484e-04  4.6967790893292008e-04  4.6769254828239596e-04  4.6653027613003203e-04  4.6616547184210607e-04  4.6659103694659024e-04  4.6781505163096622e-04  4.6986530256454859e-04  4.7280487100643040e-04  4.7675053306016346e-04  4.8187283667571536e-04  4.8834645199833477e-04  4.9620889185501816e-04  5.0534371512022216e-04  5.1566367135079708e-04  5.2694006368331887e-04  5.3936933454498605e-04  5.5507631634422127e-04  5.8296096306920760e-04  6.6357589141350759e-04  1.0171418160388730e-03  6.2882616117262520e-03  3.4373319952281163e-02  7.8974029497558412e-02  1.3112318095409292e-01  1.7818263946081705e-01  2.1060553118901915e-01  2.0944599802818600e-01  1.1514917928210908e-01  1.3691987408030004e-03  4.0482532923257547e-01  4.6452197775234849e-01  4.9610817067315949e-01  4.2434043399780375e-01  3.5679917650363735e-01  2.7730525295053093e-01  1.9700522633415721e-01  1.2345448185091552e-01  6.3018994162906170e-02  1.9852624381785543e-02  1.7926684327062895e-03  7.0131505423617988e-04  5.7474995779729487e-04  5.4621655659413610e-04  5.3039155930009946e-04  5.1698164815332454e-04  5.0517902269049545e-04  4.9489963562153190e-04  4.8628903385832141e-04  4.7945164633845459e-04  4.7420476116792994e-04  4.7023987349825252e-04  4.6731102539523576e-04  4.6528147769564200e-04  4.6409119011847329e-04  4.6371701968118078e-04  4.6415260506142876e-04  4.6540428338659792e-04  4.6749593984635331e-04  4.7049561419405692e-04  4.7455628449814520e-04  4.7994999334519410e-04  4.8700336140804841e-04  4.9586981428854937e-04  5.0623464771528954e-04  5.1867970024157802e-04  5.3294302986903804e-04  5.5298288200555034e-04  5.9990589367969261e-04  7.3175640134853163e-04  1.5061754573847592e-03  1.4850860792113256e-02  5.6969842945519392e-02  1.2004327737082224e-01  1.9309542424726064e-01  2.7307604120523804e-01  3.5261781471694320e-01  4.1872436509775596e-01  4.4986735702922398e-01  4.7195826832152871e-01  3.5758247149273403e-01  9.9563132357653339e-01  9.7768440765593256e-01  7.8914474667746670e-01  6.6431943039675745e-01  5.5787488782393402e-01  4.4515046927400259e-01  3.3805732393173415e-01  2.3839655786286237e-01  1.5101144563255386e-01  8.0285503480020379e-02  3.0672309457808682e-02  3.9798222185274861e-03  8.0169595457534753e-04  5.8501858783889201e-04  5.4046028858021602e-04  5.2049900184297077e-04  5.0616204384052452e-04  4.9421919299389523e-04  4.8446039934549448e-04  4.7707951160184611e-04  4.7165919321873943e-04  4.6764616906100668e-04  4.6468346525648364e-04  4.6261636798719985e-04  4.6139769875151710e-04  4.6101419188047124e-04  4.6146157916315421e-04  4.6274229009880629e-04  4.6486854383342530e-04  4.6789391161577672e-04  4.7200240319998253e-04  4.7760218919197278e-04  4.8526999412384567e-04  4.9561816583719095e-04  5.0761490207466907e-04  5.2413394623823434e-04  5.4881489108894580e-04  6.1688900735803315e-04  8.2950837322400071e-04  2.7159776145469468e-03  2.4893991448766226e-02  7.5695066230681007e-02  1.4785067585415870e-01  2.3455712742974238e-01  3.3467464625871202e-01  4.4340116327781981e-01  5.4594514820944307e-01  6.5777584317733195e-01  8.0722916434262260e-01  9.8613915651234774e-01  9.9000344038833477e-01  9.9905805851278362e-01  9.9918406091592937e-01  9.9720983400848739e-01  9.0511854493448929e-01  7.4534350717042552e-01  6.1688409433334790e-01  4.9095049803746793e-01  3.7190222373893600e-01  2.6363403675967018e-01  1.7035003756403866e-01  9.5488246053896747e-02  4.2282115364026727e-02  9.1466523392018818e-03  1.0697385104366545e-03  6.2470748903136950e-04  5.3815361252007100e-04  5.1119704203010988e-04  4.9475429743775794e-04  4.8276930731768679e-04  4.7463975890464952e-04  4.6907551203002266e-04  4.6504191155289672e-04  4.6203643941367443e-04  4.5990908144189304e-04  4.5864769332739768e-04  4.5825386579309720e-04  4.5872463712080651e-04  4.6006076051135532e-04  4.6226569792408892e-04  4.6534292140797329e-04  4.6952196552376633e-04  4.7538548807592184e-04  4.8406852355361413e-04  4.9784566446787776e-04  5.1583201480243719e-04  5.5692855583175480e-04  6.5601938934772299e-04  1.0307554365340712e-03  6.8182767562541729e-03  3.6952557285037338e-02  9.2220138042793498e-02  1.6742201088899650e-01  2.6067757723941004e-01  3.6988186034867737e-01  4.9059845702997351e-01  6.1190236715322455e-01  7.4351654332883110e-01  9.3617322253028323e-01  9.9809128103320988e-01  9.9927004724131152e-01  9.9872654179042242e-01  9.9937539745200343e-01  9.9958419329627068e-01  9.9917116908054926e-01  9.9695470728197844e-01  9.1042264685162666e-01  7.6818632242404650e-01  6.3823370054356909e-01  5.1085971099133209e-01  3.9000642211596948e-01  2.8042719940393046e-01  1.8673816222715656e-01  1.1134140190201187e-01  5.5958367737359106e-02  1.9933212004182136e-02  2.4768247663814668e-03  8.1344785848688479e-04  5.9121298995780793e-04  5.2245216141608641e-04  4.9400095238656466e-04  4.8004285461951456e-04  4.7195849317308036e-04  4.6661452110681012e-04  4.6282230994146713e-04  4.6021619191527100e-04  4.5871898213534044e-04  4.5828478773676313e-04  4.5889448277891803e-04  4.6058953661582742e-04  4.6346964369809102e-04  4.6761351306773871e-04  4.7368505791245370e-04  4.8320971796785017e-04  5.0057445534644387e-04  5.4001280571701652e-04  6.1309659232347926e-04  8.0498799865947668e-04  2.0069522901274787e-03  1.5939277558770681e-02  5.1643653988788271e-02  1.0934603211798531e-01  1.8413689095150174e-01  2.7829888438978845e-01  3.8903090024071874e-01  5.1137666086426337e-01  6.3802653674573739e-01  7.6674259144301415e-01  9.3554061595531313e-01  9.9757649776656920e-01  9.9919592247951816e-01  9.9958367182024910e-01  9.9932647880420855e-01  9.9933905431800263e-01  9.9961518877657662e-01  9.9936301786264303e-01  9.9856595054400599e-01  9.9261256194272740e-01  8.8408283107963703e-01  7.6375695334799831e-01  6.4078390587084477e-01  5.1837363038772877e-01  4.0150990480958865e-01  2.9574251587568079e-01  2.0549629003848771e-01  1.3260203564011330e-01  7.7571159488410549e-02  3.9923699300299841e-02  1.5024601193881878e-02  2.9942810455801474e-03  1.0754175025001736e-03  7.4223875209695111e-04  6.3288552939394700e-04  5.8124444104969836e-04  5.5273740398951771e-04  5.3570049545967563e-04  5.2572746379400963e-04  5.2066683799841646e-04  5.1936984158237475e-04  5.2149428050912488e-04  5.2744982585146841e-04  5.3839388195509790e-04  5.5586130796082931e-04  5.8475939486398430e-04  6.3527016471766036e-04  7.3789581179686272e-04  1.0392892857236048e-03  2.6005308320901804e-03  1.2230563686415428e-02  3.5063651653624087e-02  7.4859873066127153e-02  1.3087054192055353e-01  2.0340011938510785e-01  2.9437554147590272e-01  4.0145701026691272e-01  5.1942630053149308e-01  6.4260154443431949e-01  7.6424143645070486e-01  8.9708244797847292e-01  9.9416798410670326e-01  9.9855597190710443e-01  9.9934081202574609e-01  9.9960559266345972e-01  9.9937855529589448e-01  9.9880410846295964e-01  9.9942471994934901e-01  9.9916247784700774e-01  9.9850314129153173e-01  9.9591543783103731e-01  9.5629642148881588e-01  8.5536145652479878e-01  7.4970457273399582e-01  6.3688346947080965e-01  5.2305322916138786e-01  4.1438803409225061e-01  3.1642558138897814e-01  2.3312996982853951e-01  1.6594262474050622e-01  1.1410663583959103e-01  7.6209712737501364e-02  5.0147238267318962e-02  3.2061605238311280e-02  1.9444486456633017e-02  1.2302129585267073e-02  7.7595186965902663e-03  5.5175228978502702e-03  4.1576531973749799e-03  3.4157849962575568e-03  3.0732797517607955e-03  2.9700932132502040e-03  3.0559946253358237e-03  3.3653555853490618e-03  4.0426551699125979e-03  5.3360952265287661e-03  7.4428791286400382e-03  1.1581144047342349e-02  1.8283503791266302e-02  2.8778182046225224e-02  4.7166137939220268e-02  7.4333715048502377e-02  1.1321099716629979e-01  1.6457651512755098e-01  2.3169700235710150e-01  3.1596027468016219e-01  4.1504872804639170e-01  5.2464983240439311e-01  6.3919759683948041e-01  7.5261065537707750e-01  8.6102451966821980e-01  9.6333709197476225e-01  9.9571997160645509e-01  9.9835228720177616e-01  9.9909050117505660e-01  9.9938751641155310e-01  9.9909400428687023e-01  9.9007980607664403e-01  9.9749088175079026e-01  9.9731754058988331e-01  9.9638455458918251e-01  9.9322605142706666e-01  9.7119175895789667e-01  9.0775855722269971e-01  8.2912516470173536e-01  7.3567057773491640e-01  6.3472123510359013e-01  5.3280387158211495e-01  4.3627714305315918e-01  3.5021240221983685e-01  2.7768413083111593e-01  2.1950066743172153e-01  1.7460578914629282e-01  1.4103505117223541e-01  1.1668337654730095e-01  9.9338480155433270e-02  8.7184263396186221e-02  7.8665993157564548e-02  7.2906006431284212e-02  6.9160689187773586e-02  6.6592135494978180e-02  6.5133838465176050e-02  6.4652599236060690e-02  6.5018366592252519e-02  6.6273841113344778e-02  6.8647716671621797e-02  7.2486519361991825e-02  7.8086399140536139e-02  8.6456821833104255e-02  9.8903368142054401e-02  1.1647702935593357e-01  1.4101527569150191e-01  1.7407133497183269e-01  2.1863779833198871e-01  2.7738461032924333e-01  3.5076515146884457e-01  4.3764812293304695e-01  5.3487656755176538e-01  6.3745208229350170e-01  7.3921719839148059e-01  8.3387694749616559e-01  9.1476007005996340e-01  9.7169868030090722e-01  9.9220310886473162e-01  9.9592745348285894e-01  9.9730645377154215e-01  9.9779997440121870e-01  9.9650278303609996e-01  3.4059352616792399e-01  6.4780382286332949e-01  8.0381405159863351e-01  8.9817460157066153e-01  9.3611745121747114e-01  9.4042892180711990e-01  9.1937512830527357e-01  8.7418212233210690e-01  8.0786721544955209e-01  7.2793645616570557e-01  6.4151806938232536e-01  5.5549412821034405e-01  4.756325528