<?xml version="1.0"?>
<VTKFile type="UnstructuredGrid"  version="0.1"  >
<UnstructuredGrid>
<Piece  NumberOfPoints="2601" NumberOfCells="5000">
<Points>
<DataArray  type="Float64"  NumberOfComponents="3"  format="ascii">0 0 0  0.03 0 0  0.06 0 0  0.09 0 0  0.12 0 0  0.15 0 0  0.18 0 0  0.21 0 0  0.24 0 0  0.27 0 0  0.3 0 0  0.33 0 0  0.36 0 0  0.39 0 0  0.42 0 0  0.45 0 0  0.48 0 0  0.51 0 0  0.54 0 0  0.57 0 0  0.6 0 0  0.63 0 0  0.66 0 0  0.6899999999999999 0 0  0.72 0 0  0.75 0 0  0.78 0 0  0.8100000000000001 0 0  0.84 0 0  0.87 0 0  0.9 0 0  0.93 0 0  0.96 0 0  0.99 0 0  1.02 0 0  1.05 0 0  1.08 0 0  1.11 0 0  1.14 0 0  1.17 0 0  1.2 0 0  1.23 0 0  1.26 0 0  1.29 0 0  1.32 0 0  1.35 0 0  1.38 0 0  1.41 0 0  1.44 0 0  1.47 0 0  1.5 0 0  0 0.02 0  0.03 0.02 0  0.06 0.02 0  0.09 0.02 0  0.12 0.02 0  0.15 0.02 0  0.18 0.02 0  0.21 0.02 0  0.24 0.02 0  0.27 0.02 0  0.3 0.02 0  0.33 0.02 0  0.36 0.02 0  0.39 0.02 0  0.42 0.02 0  0.45 0.02 0  0.48 0.02 0  0.51 0.02 0  0.54 0.02 0  0.57 0.02 0  0.6 0.02 0  0.63 0.02 0  0.66 0.02 0  0.6899999999999999 0.02 0  0.72 0.02 0  0.75 0.02 0  0.78 0.02 0  0.8100000000000001 0.02 0  0.84 0.02 0  0.87 0.02 0  0.9 0.02 0  0.93 0.02 0  0.96 0.02 0  0.99 0.02 0  1.02 0.02 0  1.05 0.02 0  1.08 0.02 0  1.11 0.02 0  1.14 0.02 0  1.17 0.02 0  1.2 0.02 0  1.23 0.02 0  1.26 0.02 0  1.29 0.02 0  1.32 0.02 0  1.35 0.02 0  1.38 0.02 0  1.41 0.02 0  1.44 0.02 0  1.47 0.02 0  1.5 0.02 0  0 0.04 0  0.03 0.04 0  0.06 0.04 0  0.09 0.04 0  0.12 0.04 0  0.15 0.04 0  0.18 0.04 0  0.21 0.04 0  0.24 0.04 0  0.27 0.04 0  0.3 0.04 0  0.33 0.04 0  0.36 0.04 0  0.39 0.04 0  0.42 0.04 0  0.45 0.04 0  0.48 0.04 0  0.51 0.04 0  0.54 0.04 0  0.57 0.04 0  0.6 0.04 0  0.63 0.04 0  0.66 0.04 0  0.6899999999999999 0.04 0  0.72 0.04 0  0.75 0.04 0  0.78 0.04 0  0.8100000000000001 0.04 0  0.84 0.04 0  0.87 0.04 0  0.9 0.04 0  0.93 0.04 0  0.96 0.04 0  0.99 0.04 0  1.02 0.04 0  1.05 0.04 0  1.08 0.04 0  1.11 0.04 0  1.14 0.04 0  1.17 0.04 0  1.2 0.04 0  1.23 0.04 0  1.26 0.04 0  1.29 0.04 0  1.32 0.04 0  1.35 0.04 0  1.38 0.04 0  1.41 0.04 0  1.44 0.04 0  1.47 0.04 0  1.5 0.04 0  0 0.06 0  0.03 0.06 0  0.06 0.06 0  0.09 0.06 0  0.12 0.06 0  0.15 0.06 0  0.18 0.06 0  0.21 0.06 0  0.24 0.06 0  0.27 0.06 0  0.3 0.06 0  0.33 0.06 0  0.36 0.06 0  0.39 0.06 0  0.42 0.06 0  0.45 0.06 0  0.48 0.06 0  0.51 0.06 0  0.54 0.06 0  0.57 0.06 0  0.6 0.06 0  0.63 0.06 0  0.66 0.06 0  0.6899999999999999 0.06 0  0.72 0.06 0  0.75 0.06 0  0.78 0.06 0  0.8100000000000001 0.06 0  0.84 0.06 0  0.87 0.06 0  0.9 0.06 0  0.93 0.06 0  0.96 0.06 0  0.99 0.06 0  1.02 0.06 0  1.05 0.06 0  1.08 0.06 0  1.11 0.06 0  1.14 0.06 0  1.17 0.06 0  1.2 0.06 0  1.23 0.06 0  1.26 0.06 0  1.29 0.06 0  1.32 0.06 0  1.35 0.06 0  1.38 0.06 0  1.41 0.06 0  1.44 0.06 0  1.47 0.06 0  1.5 0.06 0  0 0.08 0  0.03 0.08 0  0.06 0.08 0  0.09 0.08 0  0.12 0.08 0  0.15 0.08 0  0.18 0.08 0  0.21 0.08 0  0.24 0.08 0  0.27 0.08 0  0.3 0.08 0  0.33 0.08 0  0.36 0.08 0  0.39 0.08 0  0.42 0.08 0  0.45 0.08 0  0.48 0.08 0  0.51 0.08 0  0.54 0.08 0  0.57 0.08 0  0.6 0.08 0  0.63 0.08 0  0.66 0.08 0  0.6899999999999999 0.08 0  0.72 0.08 0  0.75 0.08 0  0.78 0.08 0  0.8100000000000001 0.08 0  0.84 0.08 0  0.87 0.08 0  0.9 0.08 0  0.93 0.08 0  0.96 0.08 0  0.99 0.08 0  1.02 0.08 0  1.05 0.08 0  1.08 0.08 0  1.11 0.08 0  1.14 0.08 0  1.17 0.08 0  1.2 0.08 0  1.23 0.08 0  1.26 0.08 0  1.29 0.08 0  1.32 0.08 0  1.35 0.08 0  1.38 0.08 0  1.41 0.08 0  1.44 0.08 0  1.47 0.08 0  1.5 0.08 0  0 0.1 0  0.03 0.1 0  0.06 0.1 0  0.09 0.1 0  0.12 0.1 0  0.15 0.1 0  0.18 0.1 0  0.21 0.1 0  0.24 0.1 0  0.27 0.1 0  0.3 0.1 0  0.33 0.1 0  0.36 0.1 0  0.39 0.1 0  0.42 0.1 0  0.45 0.1 0  0.48 0.1 0  0.51 0.1 0  0.54 0.1 0  0.57 0.1 0  0.6 0.1 0  0.63 0.1 0  0.66 0.1 0  0.6899999999999999 0.1 0  0.72 0.1 0  0.75 0.1 0  0.78 0.1 0  0.8100000000000001 0.1 0  0.84 0.1 0  0.87 0.1 0  0.9 0.1 0  0.93 0.1 0  0.96 0.1 0  0.99 0.1 0  1.02 0.1 0  1.05 0.1 0  1.08 0.1 0  1.11 0.1 0  1.14 0.1 0  1.17 0.1 0  1.2 0.1 0  1.23 0.1 0  1.26 0.1 0  1.29 0.1 0  1.32 0.1 0  1.35 0.1 0  1.38 0.1 0  1.41 0.1 0  1.44 0.1 0  1.47 0.1 0  1.5 0.1 0  0 0.12 0  0.03 0.12 0  0.06 0.12 0  0.09 0.12 0  0.12 0.12 0  0.15 0.12 0  0.18 0.12 0  0.21 0.12 0  0.24 0.12 0  0.27 0.12 0  0.3 0.12 0  0.33 0.12 0  0.36 0.12 0  0.39 0.12 0  0.42 0.12 0  0.45 0.12 0  0.48 0.12 0  0.51 0.12 0  0.54 0.12 0  0.57 0.12 0  0.6 0.12 0  0.63 0.12 0  0.66 0.12 0  0.6899999999999999 0.12 0  0.72 0.12 0  0.75 0.12 0  0.78 0.12 0  0.8100000000000001 0.12 0  0.84 0.12 0  0.87 0.12 0  0.9 0.12 0  0.93 0.12 0  0.96 0.12 0  0.99 0.12 0  1.02 0.12 0  1.05 0.12 0  1.08 0.12 0  1.11 0.12 0  1.14 0.12 0  1.17 0.12 0  1.2 0.12 0  1.23 0.12 0  1.26 0.12 0  1.29 0.12 0  1.32 0.12 0  1.35 0.12 0  1.38 0.12 0  1.41 0.12 0  1.44 0.12 0  1.47 0.12 0  1.5 0.12 0  0 0.14 0  0.03 0.14 0  0.06 0.14 0  0.09 0.14 0  0.12 0.14 0  0.15 0.14 0  0.18 0.14 0  0.21 0.14 0  0.24 0.14 0  0.27 0.14 0  0.3 0.14 0  0.33 0.14 0  0.36 0.14 0  0.39 0.14 0  0.42 0.14 0  0.45 0.14 0  0.48 0.14 0  0.51 0.14 0  0.54 0.14 0  0.57 0.14 0  0.6 0.14 0  0.63 0.14 0  0.66 0.14 0  0.6899999999999999 0.14 0  0.72 0.14 0  0.75 0.14 0  0.78 0.14 0  0.8100000000000001 0.14 0  0.84 0.14 0  0.87 0.14 0  0.9 0.14 0  0.93 0.14 0  0.96 0.14 0  0.99 0.14 0  1.02 0.14 0  1.05 0.14 0  1.08 0.14 0  1.11 0.14 0  1.14 0.14 0  1.17 0.14 0  1.2 0.14 0  1.23 0.14 0  1.26 0.14 0  1.29 0.14 0  1.32 0.14 0  1.35 0.14 0  1.38 0.14 0  1.41 0.14 0  1.44 0.14 0  1.47 0.14 0  1.5 0.14 0  0 0.16 0  0.03 0.16 0  0.06 0.16 0  0.09 0.16 0  0.12 0.16 0  0.15 0.16 0  0.18 0.16 0  0.21 0.16 0  0.24 0.16 0  0.27 0.16 0  0.3 0.16 0  0.33 0.16 0  0.36 0.16 0  0.39 0.16 0  0.42 0.16 0  0.45 0.16 0  0.48 0.16 0  0.51 0.16 0  0.54 0.16 0  0.57 0.16 0  0.6 0.16 0  0.63 0.16 0  0.66 0.16 0  0.6899999999999999 0.16 0  0.72 0.16 0  0.75 0.16 0  0.78 0.16 0  0.8100000000000001 0.16 0  0.84 0.16 0  0.87 0.16 0  0.9 0.16 0  0.93 0.16 0  0.96 0.16 0  0.99 0.16 0  1.02 0.16 0  1.05 0.16 0  1.08 0.16 0  1.11 0.16 0  1.14 0.16 0  1.17 0.16 0  1.2 0.16 0  1.23 0.16 0  1.26 0.16 0  1.29 0.16 0  1.32 0.16 0  1.35 0.16 0  1.38 0.16 0  1.41 0.16 0  1.44 0.16 0  1.47 0.16 0  1.5 0.16 0  0 0.18 0  0.03 0.18 0  0.06 0.18 0  0.09 0.18 0  0.12 0.18 0  0.15 0.18 0  0.18 0.18 0  0.21 0.18 0  0.24 0.18 0  0.27 0.18 0  0.3 0.18 0  0.33 0.18 0  0.36 0.18 0  0.39 0.18 0  0.42 0.18 0  0.45 0.18 0  0.48 0.18 0  0.51 0.18 0  0.54 0.18 0  0.57 0.18 0  0.6 0.18 0  0.63 0.18 0  0.66 0.18 0  0.6899999999999999 0.18 0  0.72 0.18 0  0.75 0.18 0  0.78 0.18 0  0.8100000000000001 0.18 0  0.84 0.18 0  0.87 0.18 0  0.9 0.18 0  0.93 0.18 0  0.96 0.18 0  0.99 0.18 0  1.02 0.18 0  1.05 0.18 0  1.08 0.18 0  1.11 0.18 0  1.14 0.18 0  1.17 0.18 0  1.2 0.18 0  1.23 0.18 0  1.26 0.18 0  1.29 0.18 0  1.32 0.18 0  1.35 0.18 0  1.38 0.18 0  1.41 0.18 0  1.44 0.18 0  1.47 0.18 0  1.5 0.18 0  0 0.2 0  0.03 0.2 0  0.06 0.2 0  0.09 0.2 0  0.12 0.2 0  0.15 0.2 0  0.18 0.2 0  0.21 0.2 0  0.24 0.2 0  0.27 0.2 0  0.3 0.2 0  0.33 0.2 0  0.36 0.2 0  0.39 0.2 0  0.42 0.2 0  0.45 0.2 0  0.48 0.2 0  0.51 0.2 0  0.54 0.2 0  0.57 0.2 0  0.6 0.2 0  0.63 0.2 0  0.66 0.2 0  0.6899999999999999 0.2 0  0.72 0.2 0  0.75 0.2 0  0.78 0.2 0  0.8100000000000001 0.2 0  0.84 0.2 0  0.87 0.2 0  0.9 0.2 0  0.93 0.2 0  0.96 0.2 0  0.99 0.2 0  1.02 0.2 0  1.05 0.2 0  1.08 0.2 0  1.11 0.2 0  1.14 0.2 0  1.17 0.2 0  1.2 0.2 0  1.23 0.2 0  1.26 0.2 0  1.29 0.2 0  1.32 0.2 0  1.35 0.2 0  1.38 0.2 0  1.41 0.2 0  1.44 0.2 0  1.47 0.2 0  1.5 0.2 0  0 0.22 0  0.03 0.22 0  0.06 0.22 0  0.09 0.22 0  0.12 0.22 0  0.15 0.22 0  0.18 0.22 0  0.21 0.22 0  0.24 0.22 0  0.27 0.22 0  0.3 0.22 0  0.33 0.22 0  0.36 0.22 0  0.39 0.22 0  0.42 0.22 0  0.45 0.22 0  0.48 0.22 0  0.51 0.22 0  0.54 0.22 0  0.57 0.22 0  0.6 0.22 0  0.63 0.22 0  0.66 0.22 0  0.6899999999999999 0.22 0  0.72 0.22 0  0.75 0.22 0  0.78 0.22 0  0.8100000000000001 0.22 0  0.84 0.22 0  0.87 0.22 0  0.9 0.22 0  0.93 0.22 0  0.96 0.22 0  0.99 0.22 0  1.02 0.22 0  1.05 0.22 0  1.08 0.22 0  1.11 0.22 0  1.14 0.22 0  1.17 0.22 0  1.2 0.22 0  1.23 0.22 0  1.26 0.22 0  1.29 0.22 0  1.32 0.22 0  1.35 0.22 0  1.38 0.22 0  1.41 0.22 0  1.44 0.22 0  1.47 0.22 0  1.5 0.22 0  0 0.24 0  0.03 0.24 0  0.06 0.24 0  0.09 0.24 0  0.12 0.24 0  0.15 0.24 0  0.18 0.24 0  0.21 0.24 0  0.24 0.24 0  0.27 0.24 0  0.3 0.24 0  0.33 0.24 0  0.36 0.24 0  0.39 0.24 0  0.42 0.24 0  0.45 0.24 0  0.48 0.24 0  0.51 0.24 0  0.54 0.24 0  0.57 0.24 0  0.6 0.24 0  0.63 0.24 0  0.66 0.24 0  0.6899999999999999 0.24 0  0.72 0.24 0  0.75 0.24 0  0.78 0.24 0  0.8100000000000001 0.24 0  0.84 0.24 0  0.87 0.24 0  0.9 0.24 0  0.93 0.24 0  0.96 0.24 0  0.99 0.24 0  1.02 0.24 0  1.05 0.24 0  1.08 0.24 0  1.11 0.24 0  1.14 0.24 0  1.17 0.24 0  1.2 0.24 0  1.23 0.24 0  1.26 0.24 0  1.29 0.24 0  1.32 0.24 0  1.35 0.24 0  1.38 0.24 0  1.41 0.24 0  1.44 0.24 0  1.47 0.24 0  1.5 0.24 0  0 0.26 0  0.03 0.26 0  0.06 0.26 0  0.09 0.26 0  0.12 0.26 0  0.15 0.26 0  0.18 0.26 0  0.21 0.26 0  0.24 0.26 0  0.27 0.26 0  0.3 0.26 0  0.33 0.26 0  0.36 0.26 0  0.39 0.26 0  0.42 0.26 0  0.45 0.26 0  0.48 0.26 0  0.51 0.26 0  0.54 0.26 0  0.57 0.26 0  0.6 0.26 0  0.63 0.26 0  0.66 0.26 0  0.6899999999999999 0.26 0  0.72 0.26 0  0.75 0.26 0  0.78 0.26 0  0.8100000000000001 0.26 0  0.84 0.26 0  0.87 0.26 0  0.9 0.26 0  0.93 0.26 0  0.96 0.26 0  0.99 0.26 0  1.02 0.26 0  1.05 0.26 0  1.08 0.26 0  1.11 0.26 0  1.14 0.26 0  1.17 0.26 0  1.2 0.26 0  1.23 0.26 0  1.26 0.26 0  1.29 0.26 0  1.32 0.26 0  1.35 0.26 0  1.38 0.26 0  1.41 0.26 0  1.44 0.26 0  1.47 0.26 0  1.5 0.26 0  0 0.28 0  0.03 0.28 0  0.06 0.28 0  0.09 0.28 0  0.12 0.28 0  0.15 0.28 0  0.18 0.28 0  0.21 0.28 0  0.24 0.28 0  0.27 0.28 0  0.3 0.28 0  0.33 0.28 0  0.36 0.28 0  0.39 0.28 0  0.42 0.28 0  0.45 0.28 0  0.48 0.28 0  0.51 0.28 0  0.54 0.28 0  0.57 0.28 0  0.6 0.28 0  0.63 0.28 0  0.66 0.28 0  0.6899999999999999 0.28 0  0.72 0.28 0  0.75 0.28 0  0.78 0.28 0  0.8100000000000001 0.28 0  0.84 0.28 0  0.87 0.28 0  0.9 0.28 0  0.93 0.28 0  0.96 0.28 0  0.99 0.28 0  1.02 0.28
[...]
<PointData  Scalars="ControlVisualisation"> 
<DataArray  type="Float64"  Name="ControlVisualisation"  format="ascii">1.1514377791337460e-03  7.6868880038533202e-04  7.7145845913050546e-04  7.7715464440408820e-04  7.8592362600484605e-04  7.9680056585847755e-04  8.0826184938787612e-04  8.1890214896778791e-04  8.2779441902739728e-04  8.3453280912288330e-04  8.3909755713198401e-04  8.4169654385489153e-04  8.4265256462827214e-04  8.4233057638988685e-04  8.4108908236956261e-04  8.3925011658527381e-04  8.3708469338101470e-04  8.3480909721464405e-04  8.3258759887288095e-04  8.3053868055728796e-04  8.2874307886990784e-04  8.2725247250572389e-04  8.2609777716232736e-04  8.2529619065979155e-04  8.2485649786932054e-04  8.2478254786669519e-04  8.2507505846116970e-04  8.2573192068604532e-04  8.2674703476457920e-04  8.2810753813102901e-04  8.2978922626363982e-04  8.3175012697031211e-04  8.3392256614455253e-04  8.3620444965636944e-04  8.3845074964594354e-04  8.4046636396123160e-04  8.4200190593777390e-04  8.4275479700840852e-04  8.4237923159696066e-04  8.4050986224924360e-04  8.3680045610722237e-04  8.3098418875214900e-04  8.2296919243489810e-04  8.1298692538037641e-04  8.0174681820060741e-04  7.9045452214410031e-04  7.8061326384451816e-04  7.7353629355306414e-04  7.6961510049653045e-04  7.6807222098677441e-04  2.3000453290344903e-03  7.6825948167764046e-04  3.8496226756043456e-04  3.8771523272127645e-04  3.9383812023706876e-04  4.0391755773882572e-04  4.1728817747452816e-04  4.3235893325271164e-04  4.4727828745540432e-04  4.6049396746794747e-04  4.7104179352353931e-04  4.7854646951145033e-04  4.8307864322583204e-04  4.8499954864399060e-04  4.8482629247527853e-04  4.8312067729715073e-04  4.8041043332944136e-04  4.7714586629744806e-04  4.7368451154011142e-04  4.7029320480476916e-04  4.6715929198050946e-04  4.6440584610102370e-04  4.6210778693352796e-04  4.6030681558162107e-04  4.5902377479239189e-04  4.5826779654632450e-04  4.5804228680995976e-04  4.5834817633853115e-04  4.5918486141598830e-04  4.6054897971005226e-04  4.6243080081196470e-04  4.6480776141436848e-04  4.6763474131779868e-04  4.7083114589640418e-04  4.7426558107977417e-04  4.7773961559165819e-04  4.8097275888775285e-04  4.8359228588046950e-04  4.8513371310721841e-04  4.8506116268666152e-04  4.8281622341033044e-04  4.7789809162523841e-04  4.6997542087007894e-04  4.5902637638570696e-04  4.4550188688597113e-04  4.3046654559223286e-04  4.1552527491764803e-04  4.0247989843720080e-04  3.9285178998818652e-04  3.8721646052349284e-04  3.8479803703033463e-04  7.6798507648803260e-04  7.6909110962468949e-04  3.8582686160041469e-04  3.8941846229358529e-04  3.9726798760258899e-04  4.0993805507414267e-04  4.2649444771159065e-04  4.4506154079458892e-04  4.6344048381963910e-04  4.7973609447551343e-04  4.9274897277500572e-04  5.0197502942069905e-04  5.0744940695807118e-04  5.0959575130516516e-04  5.0906919207383743e-04  5.0660049307283837e-04  5.0287973057590112e-04  4.9849332086471666e-04  4.9390259088377859e-04  4.8944700477124780e-04  4.8535990796232987e-04  4.8178972242958012e-04  4.7882238970557841e-04  4.7650206944823103e-04  4.7484800093326778e-04  4.7386664331089114e-04  4.7355936015630042e-04  4.7392649105193653e-04  4.7496857465698615e-04  4.7668498879114922e-04  4.7906964500321142e-04  4.8210289489614659e-04  4.8573881408501114e-04  4.8988775118572695e-04  4.9439532834021321e-04  4.9901986530430614e-04  5.0341090843129116e-04  5.0709432969237250e-04  5.0947123374965868e-04  5.0984513610255521e-04  5.0748740812281727e-04  5.0176111998598695e-04  4.9226319102509727e-04  4.7897871135200911e-04  4.6242947308311716e-04  4.4391516765223391e-04  4.2541692209835256e-04  4.0901064160150512e-04  3.9650973792820386e-04  3.8893624120502095e-04  3.8563131079197695e-04  7.6858942190487559e-04  7.6989326283915876e-04  3.8706184437770302e-04  3.9208682918856908e-04  4.0194250683362473e-04  4.1643937225481985e-04  4.3416874956743722e-04  4.5329006915071024e-04  4.7161252832364920e-04  4.8736364499774894e-04  4.9961125314692384e-04  5.0801847804151290e-04  5.1266800465486252e-04  5.1400921779447360e-04  5.1273018419339728e-04  5.0958755548962190e-04  5.0528318306263887e-04  5.0040529850269749e-04  4.9541200011385411e-04  4.9063656674354025e-04  4.8630357289450679e-04  4.8255047643190049e-04  4.7945136194307977e-04  4.7703945010672209e-04  4.7532534036403277e-04  4.7430964393534831e-04  4.7399050189165961e-04  4.7436732679849376e-04  4.7544190835918177e-04  4.7721726800806089e-04  4.7969374254017188e-04  4.8286102536080743e-04  4.8668480863330981e-04  4.9108778226740306e-04  4.9592698644964912e-04  5.0096996235647877e-04  5.0587316248093550e-04  5.1016603693779521e-04  5.1324493065053693e-04  5.1439683944117008e-04  5.1286684937255152e-04  5.0801877669882554e-04  4.9939591130995547e-04  4.8690725873407417e-04  4.7083506351080779e-04  4.5225841922015683e-04  4.3316063801239848e-04  4.1547935156467533e-04  4.0093416176810958e-04  3.9119602997418195e-04  3.8661655576620476e-04  7.6943417735030495e-04  7.6974324931315284e-04  3.8860570898899445e-04  3.9749377847408122e-04  4.1174870954933089e-04  4.2878345986120295e-04  4.4716724900319024e-04  4.6615239469400828e-04  4.8340085133540152e-04  4.9749593435985406e-04  5.0807358831409888e-04  5.1495020756572450e-04  5.1817884745990108e-04  5.1821817984190935e-04  5.1579756863265650e-04  5.1169401470305706e-04  5.0660340845371183e-04  5.0109697745562211e-04  4.9561424599423379e-04  4.9047038494133847e-04  4.8587119975632853e-04  4.8193392186248374e-04  4.7871233353621021e-04  4.7622193120872290e-04  4.7446005468686420e-04  4.7341880665243080e-04  4.7309183489338574e-04  4.7347725720152481e-04  4.7457848046142154e-04  4.7640348264130206e-04  4.7896180676040427e-04  4.8225730026452222e-04  4.8627416874171952e-04  4.9095563361412574e-04  4.9617876164447297e-04  5.0173044648999150e-04  5.0728714822745032e-04  5.1239298668463761e-04  5.1645708802732957e-04  5.1877170500786959e-04  5.1857268595580206e-04  5.1519053296561273e-04  5.0810982408716512e-04  4.9742480113300943e-04  4.8313810467250014e-04  4.6543584699377215e-04  4.4643504082303551e-04  4.2816312158914870e-04  4.1072534593345823e-04  3.9605946769983165e-04  3.8745823270481855e-04  7.6974454602206518e-04  7.6995700192852834e-04  3.9275354464332022e-04  4.1933661865966405e-04  4.5651912667981248e-04  4.7636418064926438e-04  4.8418221499507078e-04  4.9259983941443307e-04  5.0248677368902475e-04  5.1194756930674780e-04  5.1957814292903724e-04  5.2423537101496621e-04  5.2546191587531609e-04  5.2368029663011327e-04  5.1969305192544463e-04  5.1429667202242428e-04  5.0816279724707168e-04  5.0183020183926631e-04  4.9570988085983082e-04  4.9009194192668694e-04  4.8515673018528272e-04  4.8099292605947944e-04  4.7762492640705090e-04  4.7504293592156151e-04  4.7322618395398506e-04  4.7215579767568872e-04  4.7181992187134793e-04  4.7221510710851239e-04  4.7334661127772259e-04  4.7522842879713366e-04  4.7788198837649815e-04  4.8133057736910703e-04  4.8558490763475740e-04  4.9061783620183927e-04  4.9633405228242098e-04  5.0254795503554945e-04  5.0896089880943327e-04  5.1514122131012896e-04  5.2055400284893528e-04  5.2447350746382185e-04  5.2608749695973634e-04  5.2465421165571449e-04  5.2048068044373362e-04  5.1400038244476880e-04  5.0673352954141754e-04  4.9879962807334666e-04  4.9269090234890919e-04  4.8188702318002107e-04  4.4625135745833224e-04  4.0856240220954335e-04  3.8881179500277517e-04  7.6910731158070492e-04  7.9501993745452839e-04  4.2434117219733789e-04  5.8263634373480471e-04  1.0036987862571383e-03  1.2877633043769739e-03  9.4160110824886714e-04  6.8006834868427615e-04  5.6937767740327359e-04  5.3864750977622726e-04  5.3584357994169377e-04  5.3645750654967260e-04  5.3479758036125043e-04  5.3053910158184082e-04  5.2450087350315111e-04  5.1745860929574856e-04  5.1001342288936201e-04  5.0264977207601985e-04  4.9573915776042932e-04  4.8954057472072230e-04  4.8420320012786122e-04  4.7977728669126429e-04  4.7624576015701815e-04  4.7356400582768723e-04  4.7168801680448435e-04  4.7058607019236385e-04  4.7024040164888366e-04  4.7064592267142825e-04  4.7180968478492918e-04  4.7375209235470085e-04  4.7650855067482952e-04  4.8012761155429240e-04  4.8465699251881261e-04  4.9011175617170825e-04  4.9643076043143599e-04  5.0346260335947792e-04  5.1094118645598910e-04  5.1850146035539735e-04  5.2565093003703275e-04  5.3158944196011321e-04  5.3589387888676844e-04  5.3795942532721753e-04  5.4116211115514204e-04  5.5223211603753900e-04  5.9548612035602018e-04  6.9175638970633173e-04  9.0472875852724366e-04  1.2703012895184066e-03  1.0584711823441581e-03  6.1630431418703189e-04  4.1642139848872627e-04  7.7223696077909510e-04  8.6304546107605375e-04  9.1762532882940222e-04  3.0923631324115467e-02  5.8429943122343134e-02  5.4570159939707090e-02  3.5643915138961611e-02  1.3084946116992995e-02  1.7425554167293158e-03  7.2411310282151841e-04  5.8036293279609000e-04  5.5523008702064957e-04  5.4688982830445264e-04  5.3889260010431261e-04  5.3020819076044650e-04  5.2114809651594696e-04  5.1211468427979823e-04  5.0351047449924977e-04  4.9565495665119565e-04  4.8877140138647564e-04  4.8297544221430745e-04  4.7826615827495182e-04  4.7456709307338056e-04  4.7178625501740322e-04  4.6985149943016251e-04  4.6871774907761044e-04  4.6836199338879959e-04  4.6877776640352428e-04  4.6997339688465101e-04  4.7197484163692205e-04  4.7483227079830133e-04  4.7862540018028604e-04  4.8345320446809183e-04  4.8939173354887815e-04  4.9641983364208321e-04  5.0442855052102971e-04  5.1320736075303455e-04  5.2245668865976813e-04  5.3164155122609885e-04  5.4079686120589725e-04  5.5019899446346818e-04  5.6252661828430021e-04  6.0881807531250830e-04  7.4878884893640632e-04  1.4743164681995170e-03  1.0375396329736490e-02  3.1073188858018318e-02  5.1789193665157891e-02  5.8897947476012881e-02  4.2440653999785742e-02  9.3512868421995990e-04  8.5126678857053346e-04  1.8496280917311716e-03  9.0683255754107975e-02  2.1144039115754068e-01  2.1590877488632876e-01  1.8229853537299598e-01  1.3490361955562255e-01  8.4970312180791874e-02  3.9987642121556574e-02  8.8223287634914601e-03  1.0327445109927498e-03  6.3409525230881695e-04  5.6826476081577200e-04  5.4958309198842846e-04  5.3688465154519351e-04  5.2534928712544000e-04  5.1441986789410035e-04  5.0435791263332935e-04  4.9539764476672033e-04  4.8772276802483855e-04  4.8142449984535401e-04  4.7643182195939224e-04  4.7257914882260083e-04  4.6971036400311289e-04  4.6772206135334391e-04  4.6655804364138125e-04  4.6619237221797507e-04  4.6661795398735342e-04  4.6784319290564736e-04  4.6989675506147778e-04  4.7284184812782730e-04  4.7679282613268973e-04  4.8192103940821672e-04  4.8839808405267814e-04  4.9625564181199366e-04  5.0539070726354351e-04  5.1571853879968821e-04  5.2698017038013093e-04  5.3924191840036160e-04  5.5499646402374129e-04  5.8284005194301515e-04  6.6323606854985480e-04  1.0118439091368599e-03  6.1770395284457607e-03  3.3928132929394561e-02  7.9183180819919666e-02  1.3073921315095960e-01  1.7769874764414151e-01  2.1018313290150398e-01  2.0912239977983729e-01  1.1442297665913240e-01  1.3701498934619780e-03  4.0470745756184817e-01  4.6497350286707573e-01  4.9648023181145001e-01  4.2451091989323603e-01  3.5683076588854151e-01  2.7736323909286825e-01  1.9678209689197632e-01  1.2275073137071059e-01  6.3117944343724003e-02  2.0100726923814115e-02  1.7727248325659904e-03  6.9999598163044373e-04  5.7459349482105379e-04  5.4619709267793998e-04  5.3034186312330030e-04  5.1692762141406130e-04  5.0515416247975823e-04  4.9490979868822523e-04  4.8631839553837317e-04  4.7949046657715311e-04  4.7424712966324375e-04  4.7027849900667206e-04  4.6734354495598350e-04  4.6531012906091704e-04  4.6411794824872607e-04  4.6374264912101769e-04  4.6417788353420047e-04  4.6543013914075525e-04  4.6752548118919260e-04  4.7053324761650600e-04  4.7459951927447571e-04  4.8000082612701430e-04  4.8706145861025915e-04  4.9591199762320500e-04  5.0626809455267833e-04  5.1874227338522406e-04  5.3304848288681641e-04  5.5258544614993576e-04  5.9929688013850594e-04  7.3033239791467526e-04  1.4964237376770464e-03  1.5400545460282838e-02  5.7088823850093735e-02  1.1921049892967260e-01  1.9314390617220326e-01  2.7335942179245643e-01  3.5280999338922925e-01  4.1885810968630832e-01  4.5002867802491986e-01  4.7205057292130614e-01  3.5762037941038871e-01  9.9558660771893925e-01  9.7723963121033841e-01  7.8880389338809875e-01  6.6407214272585913e-01  5.5796993244889526e-01  4.4520014607551933e-01  3.3823493405672023e-01  2.3826105992892016e-01  1.5043077492328716e-01  8.0750467460972933e-02  3.1128230375868534e-02  3.9563595399247347e-03  7.9730580419669318e-04  5.8420708858023971e-04  5.4022868214029511e-04  5.2035989278305741e-04  5.0610098177991355e-04  4.9422921518779239e-04  4.8449305917469380e-04  4.7712247040812794e-04  4.7170947593202156e-04  4.6768852470405973e-04  4.6471492002584768e-04  4.6264345717039886e-04  4.6142338295441089e-04  4.6103847838618417e-04  4.6148488320313678e-04  4.6276502772166174e-04  4.6489435614145268e-04  4.6793271527569664e-04  4.7204860264120065e-04  4.7765154511034412e-04  4.8534647667556154e-04  4.9565161229335193e-04  5.0759621948970356e-04  5.2417776636202811e-04  5.4907204091399122e-04  6.1521355561267195e-04  8.2466177150488686e-04  2.6937522584286732e-03  2.5650402513683879e-02  7.5728642151459483e-02  1.4784400922397414e-01  2.3476401119441873e-01  3.3460475324685995e-01  4.4341058874439210e-01  5.4572798652026744e-01  6.5726149901648412e-01  8.0688542023908583e-01  9.8563160665874261e-01  9.8953392965474885e-01  9.9905815460962599e-01  9.9918395094119261e-01  9.9720396105448172e-01  9.0476586172980689e-01  7.4507239896222377e-01  6.1661569882476996e-01  4.9079314009843239e-01  3.7200072779524840e-01  2.6366118129518412e-01  1.7000030032111332e-01  9.5311991901603776e-02  4.1914145379827877e-02  9.1130909228834441e-03  1.0600228523616731e-03  6.2299287933246584e-04  5.3767527655258025e-04  5.1103079629626210e-04  4.9477299924290802e-04  4.8280086814716562e-04  4.7468075154134224e-04  4.6914003933730468e-04  4.6508782473412354e-04  4.6206223832081768e-04  4.5993280013464639e-04  4.5867197284393070e-04  4.5827588872844393e-04  4.5874463808479374e-04  4.6007967771332563e-04  4.6227956849016527e-04  4.6538248414954253e-04  4.6958037662296013e-04  4.7539835846556504e-04  4.8419881419209241e-04  4.9784938992196827e-04  5.1561673244463456e-04  5.5662485815684119e-04  6.5587117564692781e-04  1.0224799759390607e-03  6.0173063277503998e-03  3.6396839359364580e-02  9.1580533681406048e-02  1.6769761456199322e-01  2.6090787492628620e-01  3.6965284067656295e-01  4.9032651796572374e-01  6.1139741857940366e-01  7.4293040452297987e-01  9.3601011103609477e-01  9.9809080928780924e-01  9.9927031650316300e-01  9.9872667613537602e-01  9.9937544265816147e-01  9.9958420701082606e-01  9.9917102174340455e-01  9.9694293582890703e-01  9.0996149287656070e-01  7.6781601041786562e-01  6.3776939861388637e-01  5.1051817168497104e-01  3.8998197166423787e-01  2.8053756169410721e-01  1.8643012018717162e-01  1.1076755676897929e-01  5.6136118553648875e-02  1.9665561767241154e-02  2.4239541334350190e-03  8.0927288153646968e-04  5.9002253241160194e-04  5.2231902104212804e-04  4.9395904887232262e-04  4.8002151653722046e-04  4.7202840477215784e-04  4.6664576329785685e-04  4.6282175280569450e-04  4.6022786203072307e-04  4.5873605522460078e-04  4.5829603033801803e-04  4.5890164702906553e-04  4.6059502560379074e-04  4.6343894037239209e-04  4.6762980869852498e-04  4.7373878975168448e-04  4.8305196833303975e-04  5.0073933264316881e-04  5.3963201245240257e-04  6.1159295895735829e-04  8.0147948775666775e-04  2.0021684294035513e-03  1.5564755486611334e-02  5.1235980995348651e-02  1.0833221949548483e-01  1.8422546737808176e-01  2.7835903572316328e-01  3.8868882550428191e-01  5.1081243752176664e-01  6.3755287768835134e-01  7.6618284398201497e-01  9.3535082807629732e-01  9.9756793755388384e-01  9.9919551592440159e-01  9.9958367442790719e-01  9.9932651949110785e-01  9.9933911819263643e-01  9.9961524703605631e-01  9.9936318231762422e-01  9.9856640158323107e-01  9.9237220954111427e-01  8.8348994882925336e-01  7.6337976712820566e-01  6.4016610563452658e-01  5.1786385203378882e-01  4.0136474326241128e-01  2.9585896686303664e-01  2.0533103061121721e-01  1.3209406954315844e-01  7.7510073856212544e-02  3.9492478665968771e-02  1.4949469639592650e-02  2.9539659885464650e-03  1.0734689659948255e-03  7.4066081173959197e-04  6.3254185828153886e-04  5.8146884440884831e-04  5.5265679364931543e-04  5.3568949996102581e-04  5.2583152249308421e-04  5.2079175163157474e-04  5.1947767331488818e-04  5.2159563693897630e-04  5.2754026078342313e-04  5.3826034509375027e-04  5.5591036168555472e-04  5.8492473508330446e-04  6.3363525032693942e-04  7.3894762149627751e-04  1.0375387100307811e-03  2.5323382508952610e-03  1.1939351949363295e-02  3.5303016473265669e-02  7.4777418382058383e-02  1.3072326878285145e-01  2.0356133153876257e-01  2.9424226657350377e-01  4.0095996584824228e-01  5.1866017129380904e-01  6.4202301282802821e-01  7.6364128991586877e-01  8.9660654116245819e-01  9.9405148490588036e-01  9.9855531813209242e-01  9.9934096430163821e-01  9.9960564541327557e-01  9.9937860661036904e-01  9.9880412896894144e-01  9.9942495863584568e-01  9.9916325892143187e-01  9.9850556906808918e-01  9.9589006990075879e-01  9.5587302950153774e-01  8.5498913304523116e-01  7.4921477812481785e-01  6.3616326031321957e-01  5.2242256312078550e-01  4.1414219902903743e-01  3.1657829249520647e-01  2.3321236895009670e-01  1.6557340934836526e-01  1.1353893271541338e-01  7.6092138644834412e-02  5.0104480804678865e-02  3.1963410955610665e-02  1.9959518587802073e-02  1.2358160209371253e-02  8.2568638545827047e-03  5.6205914740561731e-03  4.2009144514984905e-03  3.4750061284175167e-03  3.1256575433004957e-03  3.0172892243048007e-03  3.1068888653290462e-03  3.4289331278531689e-03  4.1050306126602654e-03  5.4047826221366342e-03  7.8919965465403946e-03  1.1735491941706569e-02  1.8316791384385692e-02  2.9629930604444840e-02  4.6704373408025260e-02  7.4337050648578470e-02  1.1254228278061251e-01  1.6465414329665815e-01  2.3199084209532547e-01  3.1581290283534125e-01  4.1443255723009093e-01  5.2377297705690640e-01  6.3842163800668073e-01  7.5212375804853460e-01  8.6027385625258446e-01  9.6298434184712212e-01  9.9569614182224320e-01  9.9835484544557829e-01  9.9909138008481801e-01  9.9938780281863193e-01  9.9909415138795832e-01  9.8958973992454491e-01  9.9749606124926371e-01  9.9732206916058797e-01  9.9638154948391144e-01  9.9306294622922464e-01  9.7072683521221992e-01  9.0726410000347668e-01  8.2887391809991040e-01  7.3510487826693438e-01  6.3394745388585194e-01  5.3210495671608582e-01  4.3597735540323079e-01  3.5038828946240208e-01  2.7802595219074416e-01  2.1961949748526383e-01  1.7436337807582622e-01  1.4036206815132454e-01  1.1576217023099090e-01  9.8906284207835329e-02  8.7233137776913397e-02  7.8937402178877042e-02  7.3210028397024923e-02  6.9208359906615738e-02  6.6783073900776466e-02  6.5446648221378523e-02  6.4953480613222855e-02  6.5295374726103514e-02  6.6539283577844485e-02  6.8835959550186190e-02  7.2550610703789820e-02  7.8347612472354597e-02  8.6648749551392054e-02  9.8476619057935949e-02  1.1584377262670911e-01  1.4037062582530552e-01  1.7409592128339541e-01  2.1901654038928187e-01  2.7752614208052023e-01  3.5054818864007425e-01  4.3698625627285592e-01  5.3393785620117939e-01  6.3658999568984742e-01  7.3861446347307591e-01  8.3339272791824914e-01  9.1430231842236387e-01  9.7113238607861174e-01  9.9197882612074073e-01  9.9592777818541312e-01  9.9731368559614053e-01  9.9780484430958094e-01  9.9648326228994066e-01  3.4039758361348987e-01  6.4771905525444640e-01  8.0392189629652699e-01  8.9801977715918746e-01  9.3607193378853581e-01  9.4015146432307839e-01  9.1913707201162842e-01  8.7408335732329201e-01  8.0755402703902079e-01  7.2735796574735045e-01  6.4075305369457347e-01  5.5480524619562277e-01  4.753050676