<?xml version="1.0"?>
<VTKFile type="UnstructuredGrid"  version="0.1"  >
<UnstructuredGrid>
<Piece  NumberOfPoints="2601" NumberOfCells="5000">
<Points>
<DataArray  type="Float64"  NumberOfComponents="3"  format="ascii">0 0 0  0.03 0 0  0.06 0 0  0.09 0 0  0.12 0 0  0.15 0 0  0.18 0 0  0.21 0 0  0.24 0 0  0.27 0 0  0.3 0 0  0.33 0 0  0.36 0 0  0.39 0 0  0.42 0 0  0.45 0 0  0.48 0 0  0.51 0 0  0.54 0 0  0.57 0 0  0.6 0 0  0.63 0 0  0.66 0 0  0.6899999999999999 0 0  0.72 0 0  0.75 0 0  0.78 0 0  0.8100000000000001 0 0  0.84 0 0  0.87 0 0  0.9 0 0  0.93 0 0  0.96 0 0  0.99 0 0  1.02 0 0  1.05 0 0  1.08 0 0  1.11 0 0  1.14 0 0  1.17 0 0  1.2 0 0  1.23 0 0  1.26 0 0  1.29 0 0  1.32 0 0  1.35 0 0  1.38 0 0  1.41 0 0  1.44 0 0  1.47 0 0  1.5 0 0  0 0.02 0  0.03 0.02 0  0.06 0.02 0  0.09 0.02 0  0.12 0.02 0  0.15 0.02 0  0.18 0.02 0  0.21 0.02 0  0.24 0.02 0  0.27 0.02 0  0.3 0.02 0  0.33 0.02 0  0.36 0.02 0  0.39 0.02 0  0.42 0.02 0  0.45 0.02 0  0.48 0.02 0  0.51 0.02 0  0.54 0.02 0  0.57 0.02 0  0.6 0.02 0  0.63 0.02 0  0.66 0.02 0  0.6899999999999999 0.02 0  0.72 0.02 0  0.75 0.02 0  0.78 0.02 0  0.8100000000000001 0.02 0  0.84 0.02 0  0.87 0.02 0  0.9 0.02 0  0.93 0.02 0  0.96 0.02 0  0.99 0.02 0  1.02 0.02 0  1.05 0.02 0  1.08 0.02 0  1.11 0.02 0  1.14 0.02 0  1.17 0.02 0  1.2 0.02 0  1.23 0.02 0  1.26 0.02 0  1.29 0.02 0  1.32 0.02 0  1.35 0.02 0  1.38 0.02 0  1.41 0.02 0  1.44 0.02 0  1.47 0.02 0  1.5 0.02 0  0 0.04 0  0.03 0.04 0  0.06 0.04 0  0.09 0.04 0  0.12 0.04 0  0.15 0.04 0  0.18 0.04 0  0.21 0.04 0  0.24 0.04 0  0.27 0.04 0  0.3 0.04 0  0.33 0.04 0  0.36 0.04 0  0.39 0.04 0  0.42 0.04 0  0.45 0.04 0  0.48 0.04 0  0.51 0.04 0  0.54 0.04 0  0.57 0.04 0  0.6 0.04 0  0.63 0.04 0  0.66 0.04 0  0.6899999999999999 0.04 0  0.72 0.04 0  0.75 0.04 0  0.78 0.04 0  0.8100000000000001 0.04 0  0.84 0.04 0  0.87 0.04 0  0.9 0.04 0  0.93 0.04 0  0.96 0.04 0  0.99 0.04 0  1.02 0.04 0  1.05 0.04 0  1.08 0.04 0  1.11 0.04 0  1.14 0.04 0  1.17 0.04 0  1.2 0.04 0  1.23 0.04 0  1.26 0.04 0  1.29 0.04 0  1.32 0.04 0  1.35 0.04 0  1.38 0.04 0  1.41 0.04 0  1.44 0.04 0  1.47 0.04 0  1.5 0.04 0  0 0.06 0  0.03 0.06 0  0.06 0.06 0  0.09 0.06 0  0.12 0.06 0  0.15 0.06 0  0.18 0.06 0  0.21 0.06 0  0.24 0.06 0  0.27 0.06 0  0.3 0.06 0  0.33 0.06 0  0.36 0.06 0  0.39 0.06 0  0.42 0.06 0  0.45 0.06 0  0.48 0.06 0  0.51 0.06 0  0.54 0.06 0  0.57 0.06 0  0.6 0.06 0  0.63 0.06 0  0.66 0.06 0  0.6899999999999999 0.06 0  0.72 0.06 0  0.75 0.06 0  0.78 0.06 0  0.8100000000000001 0.06 0  0.84 0.06 0  0.87 0.06 0  0.9 0.06 0  0.93 0.06 0  0.96 0.06 0  0.99 0.06 0  1.02 0.06 0  1.05 0.06 0  1.08 0.06 0  1.11 0.06 0  1.14 0.06 0  1.17 0.06 0  1.2 0.06 0  1.23 0.06 0  1.26 0.06 0  1.29 0.06 0  1.32 0.06 0  1.35 0.06 0  1.38 0.06 0  1.41 0.06 0  1.44 0.06 0  1.47 0.06 0  1.5 0.06 0  0 0.08 0  0.03 0.08 0  0.06 0.08 0  0.09 0.08 0  0.12 0.08 0  0.15 0.08 0  0.18 0.08 0  0.21 0.08 0  0.24 0.08 0  0.27 0.08 0  0.3 0.08 0  0.33 0.08 0  0.36 0.08 0  0.39 0.08 0  0.42 0.08 0  0.45 0.08 0  0.48 0.08 0  0.51 0.08 0  0.54 0.08 0  0.57 0.08 0  0.6 0.08 0  0.63 0.08 0  0.66 0.08 0  0.6899999999999999 0.08 0  0.72 0.08 0  0.75 0.08 0  0.78 0.08 0  0.8100000000000001 0.08 0  0.84 0.08 0  0.87 0.08 0  0.9 0.08 0  0.93 0.08 0  0.96 0.08 0  0.99 0.08 0  1.02 0.08 0  1.05 0.08 0  1.08 0.08 0  1.11 0.08 0  1.14 0.08 0  1.17 0.08 0  1.2 0.08 0  1.23 0.08 0  1.26 0.08 0  1.29 0.08 0  1.32 0.08 0  1.35 0.08 0  1.38 0.08 0  1.41 0.08 0  1.44 0.08 0  1.47 0.08 0  1.5 0.08 0  0 0.1 0  0.03 0.1 0  0.06 0.1 0  0.09 0.1 0  0.12 0.1 0  0.15 0.1 0  0.18 0.1 0  0.21 0.1 0  0.24 0.1 0  0.27 0.1 0  0.3 0.1 0  0.33 0.1 0  0.36 0.1 0  0.39 0.1 0  0.42 0.1 0  0.45 0.1 0  0.48 0.1 0  0.51 0.1 0  0.54 0.1 0  0.57 0.1 0  0.6 0.1 0  0.63 0.1 0  0.66 0.1 0  0.6899999999999999 0.1 0  0.72 0.1 0  0.75 0.1 0  0.78 0.1 0  0.8100000000000001 0.1 0  0.84 0.1 0  0.87 0.1 0  0.9 0.1 0  0.93 0.1 0  0.96 0.1 0  0.99 0.1 0  1.02 0.1 0  1.05 0.1 0  1.08 0.1 0  1.11 0.1 0  1.14 0.1 0  1.17 0.1 0  1.2 0.1 0  1.23 0.1 0  1.26 0.1 0  1.29 0.1 0  1.32 0.1 0  1.35 0.1 0  1.38 0.1 0  1.41 0.1 0  1.44 0.1 0  1.47 0.1 0  1.5 0.1 0  0 0.12 0  0.03 0.12 0  0.06 0.12 0  0.09 0.12 0  0.12 0.12 0  0.15 0.12 0  0.18 0.12 0  0.21 0.12 0  0.24 0.12 0  0.27 0.12 0  0.3 0.12 0  0.33 0.12 0  0.36 0.12 0  0.39 0.12 0  0.42 0.12 0  0.45 0.12 0  0.48 0.12 0  0.51 0.12 0  0.54 0.12 0  0.57 0.12 0  0.6 0.12 0  0.63 0.12 0  0.66 0.12 0  0.6899999999999999 0.12 0  0.72 0.12 0  0.75 0.12 0  0.78 0.12 0  0.8100000000000001 0.12 0  0.84 0.12 0  0.87 0.12 0  0.9 0.12 0  0.93 0.12 0  0.96 0.12 0  0.99 0.12 0  1.02 0.12 0  1.05 0.12 0  1.08 0.12 0  1.11 0.12 0  1.14 0.12 0  1.17 0.12 0  1.2 0.12 0  1.23 0.12 0  1.26 0.12 0  1.29 0.12 0  1.32 0.12 0  1.35 0.12 0  1.38 0.12 0  1.41 0.12 0  1.44 0.12 0  1.47 0.12 0  1.5 0.12 0  0 0.14 0  0.03 0.14 0  0.06 0.14 0  0.09 0.14 0  0.12 0.14 0  0.15 0.14 0  0.18 0.14 0  0.21 0.14 0  0.24 0.14 0  0.27 0.14 0  0.3 0.14 0  0.33 0.14 0  0.36 0.14 0  0.39 0.14 0  0.42 0.14 0  0.45 0.14 0  0.48 0.14 0  0.51 0.14 0  0.54 0.14 0  0.57 0.14 0  0.6 0.14 0  0.63 0.14 0  0.66 0.14 0  0.6899999999999999 0.14 0  0.72 0.14 0  0.75 0.14 0  0.78 0.14 0  0.8100000000000001 0.14 0  0.84 0.14 0  0.87 0.14 0  0.9 0.14 0  0.93 0.14 0  0.96 0.14 0  0.99 0.14 0  1.02 0.14 0  1.05 0.14 0  1.08 0.14 0  1.11 0.14 0  1.14 0.14 0  1.17 0.14 0  1.2 0.14 0  1.23 0.14 0  1.26 0.14 0  1.29 0.14 0  1.32 0.14 0  1.35 0.14 0  1.38 0.14 0  1.41 0.14 0  1.44 0.14 0  1.47 0.14 0  1.5 0.14 0  0 0.16 0  0.03 0.16 0  0.06 0.16 0  0.09 0.16 0  0.12 0.16 0  0.15 0.16 0  0.18 0.16 0  0.21 0.16 0  0.24 0.16 0  0.27 0.16 0  0.3 0.16 0  0.33 0.16 0  0.36 0.16 0  0.39 0.16 0  0.42 0.16 0  0.45 0.16 0  0.48 0.16 0  0.51 0.16 0  0.54 0.16 0  0.57 0.16 0  0.6 0.16 0  0.63 0.16 0  0.66 0.16 0  0.6899999999999999 0.16 0  0.72 0.16 0  0.75 0.16 0  0.78 0.16 0  0.8100000000000001 0.16 0  0.84 0.16 0  0.87 0.16 0  0.9 0.16 0  0.93 0.16 0  0.96 0.16 0  0.99 0.16 0  1.02 0.16 0  1.05 0.16 0  1.08 0.16 0  1.11 0.16 0  1.14 0.16 0  1.17 0.16 0  1.2 0.16 0  1.23 0.16 0  1.26 0.16 0  1.29 0.16 0  1.32 0.16 0  1.35 0.16 0  1.38 0.16 0  1.41 0.16 0  1.44 0.16 0  1.47 0.16 0  1.5 0.16 0  0 0.18 0  0.03 0.18 0  0.06 0.18 0  0.09 0.18 0  0.12 0.18 0  0.15 0.18 0  0.18 0.18 0  0.21 0.18 0  0.24 0.18 0  0.27 0.18 0  0.3 0.18 0  0.33 0.18 0  0.36 0.18 0  0.39 0.18 0  0.42 0.18 0  0.45 0.18 0  0.48 0.18 0  0.51 0.18 0  0.54 0.18 0  0.57 0.18 0  0.6 0.18 0  0.63 0.18 0  0.66 0.18 0  0.6899999999999999 0.18 0  0.72 0.18 0  0.75 0.18 0  0.78 0.18 0  0.8100000000000001 0.18 0  0.84 0.18 0  0.87 0.18 0  0.9 0.18 0  0.93 0.18 0  0.96 0.18 0  0.99 0.18 0  1.02 0.18 0  1.05 0.18 0  1.08 0.18 0  1.11 0.18 0  1.14 0.18 0  1.17 0.18 0  1.2 0.18 0  1.23 0.18 0  1.26 0.18 0  1.29 0.18 0  1.32 0.18 0  1.35 0.18 0  1.38 0.18 0  1.41 0.18 0  1.44 0.18 0  1.47 0.18 0  1.5 0.18 0  0 0.2 0  0.03 0.2 0  0.06 0.2 0  0.09 0.2 0  0.12 0.2 0  0.15 0.2 0  0.18 0.2 0  0.21 0.2 0  0.24 0.2 0  0.27 0.2 0  0.3 0.2 0  0.33 0.2 0  0.36 0.2 0  0.39 0.2 0  0.42 0.2 0  0.45 0.2 0  0.48 0.2 0  0.51 0.2 0  0.54 0.2 0  0.57 0.2 0  0.6 0.2 0  0.63 0.2 0  0.66 0.2 0  0.6899999999999999 0.2 0  0.72 0.2 0  0.75 0.2 0  0.78 0.2 0  0.8100000000000001 0.2 0  0.84 0.2 0  0.87 0.2 0  0.9 0.2 0  0.93 0.2 0  0.96 0.2 0  0.99 0.2 0  1.02 0.2 0  1.05 0.2 0  1.08 0.2 0  1.11 0.2 0  1.14 0.2 0  1.17 0.2 0  1.2 0.2 0  1.23 0.2 0  1.26 0.2 0  1.29 0.2 0  1.32 0.2 0  1.35 0.2 0  1.38 0.2 0  1.41 0.2 0  1.44 0.2 0  1.47 0.2 0  1.5 0.2 0  0 0.22 0  0.03 0.22 0  0.06 0.22 0  0.09 0.22 0  0.12 0.22 0  0.15 0.22 0  0.18 0.22 0  0.21 0.22 0  0.24 0.22 0  0.27 0.22 0  0.3 0.22 0  0.33 0.22 0  0.36 0.22 0  0.39 0.22 0  0.42 0.22 0  0.45 0.22 0  0.48 0.22 0  0.51 0.22 0  0.54 0.22 0  0.57 0.22 0  0.6 0.22 0  0.63 0.22 0  0.66 0.22 0  0.6899999999999999 0.22 0  0.72 0.22 0  0.75 0.22 0  0.78 0.22 0  0.8100000000000001 0.22 0  0.84 0.22 0  0.87 0.22 0  0.9 0.22 0  0.93 0.22 0  0.96 0.22 0  0.99 0.22 0  1.02 0.22 0  1.05 0.22 0  1.08 0.22 0  1.11 0.22 0  1.14 0.22 0  1.17 0.22 0  1.2 0.22 0  1.23 0.22 0  1.26 0.22 0  1.29 0.22 0  1.32 0.22 0  1.35 0.22 0  1.38 0.22 0  1.41 0.22 0  1.44 0.22 0  1.47 0.22 0  1.5 0.22 0  0 0.24 0  0.03 0.24 0  0.06 0.24 0  0.09 0.24 0  0.12 0.24 0  0.15 0.24 0  0.18 0.24 0  0.21 0.24 0  0.24 0.24 0  0.27 0.24 0  0.3 0.24 0  0.33 0.24 0  0.36 0.24 0  0.39 0.24 0  0.42 0.24 0  0.45 0.24 0  0.48 0.24 0  0.51 0.24 0  0.54 0.24 0  0.57 0.24 0  0.6 0.24 0  0.63 0.24 0  0.66 0.24 0  0.6899999999999999 0.24 0  0.72 0.24 0  0.75 0.24 0  0.78 0.24 0  0.8100000000000001 0.24 0  0.84 0.24 0  0.87 0.24 0  0.9 0.24 0  0.93 0.24 0  0.96 0.24 0  0.99 0.24 0  1.02 0.24 0  1.05 0.24 0  1.08 0.24 0  1.11 0.24 0  1.14 0.24 0  1.17 0.24 0  1.2 0.24 0  1.23 0.24 0  1.26 0.24 0  1.29 0.24 0  1.32 0.24 0  1.35 0.24 0  1.38 0.24 0  1.41 0.24 0  1.44 0.24 0  1.47 0.24 0  1.5 0.24 0  0 0.26 0  0.03 0.26 0  0.06 0.26 0  0.09 0.26 0  0.12 0.26 0  0.15 0.26 0  0.18 0.26 0  0.21 0.26 0  0.24 0.26 0  0.27 0.26 0  0.3 0.26 0  0.33 0.26 0  0.36 0.26 0  0.39 0.26 0  0.42 0.26 0  0.45 0.26 0  0.48 0.26 0  0.51 0.26 0  0.54 0.26 0  0.57 0.26 0  0.6 0.26 0  0.63 0.26 0  0.66 0.26 0  0.6899999999999999 0.26 0  0.72 0.26 0  0.75 0.26 0  0.78 0.26 0  0.8100000000000001 0.26 0  0.84 0.26 0  0.87 0.26 0  0.9 0.26 0  0.93 0.26 0  0.96 0.26 0  0.99 0.26 0  1.02 0.26 0  1.05 0.26 0  1.08 0.26 0  1.11 0.26 0  1.14 0.26 0  1.17 0.26 0  1.2 0.26 0  1.23 0.26 0  1.26 0.26 0  1.29 0.26 0  1.32 0.26 0  1.35 0.26 0  1.38 0.26 0  1.41 0.26 0  1.44 0.26 0  1.47 0.26 0  1.5 0.26 0  0 0.28 0  0.03 0.28 0  0.06 0.28 0  0.09 0.28 0  0.12 0.28 0  0.15 0.28 0  0.18 0.28 0  0.21 0.28 0  0.24 0.28 0  0.27 0.28 0  0.3 0.28 0  0.33 0.28 0  0.36 0.28 0  0.39 0.28 0  0.42 0.28 0  0.45 0.28 0  0.48 0.28 0  0.51 0.28 0  0.54 0.28 0  0.57 0.28 0  0.6 0.28 0  0.63 0.28 0  0.66 0.28 0  0.6899999999999999 0.28 0  0.72 0.28 0  0.75 0.28 0  0.78 0.28 0  0.8100000000000001 0.28 0  0.84 0.28 0  0.87 0.28 0  0.9 0.28 0  0.93 0.28 0  0.96 0.28 0  0.99 0.28 0  1.02 0.28
[...]
<PointData  Scalars="ControlVisualisation"> 
<DataArray  type="Float64"  Name="ControlVisualisation"  format="ascii">1.9137627950151414e-05  1.2768577115000308e-05  1.2816262847808403e-05  1.2914269190216701e-05  1.3065221432761021e-05  1.3253034938335978e-05  1.3451764346006754e-05  1.3636784178210920e-05  1.3791413969886169e-05  1.3908201738044486e-05  1.3986651487747474e-05  1.4030364386736419e-05  1.4045069809716159e-05  1.4037359746591216e-05  1.4013758615765366e-05  1.3980096203844229e-05  1.3941207831914179e-05  1.3900879840731541e-05  1.3861924687054386e-05  1.3826313258992142e-05  1.3795335218840077e-05  1.3769770917277550e-05  1.3750054798031505e-05  1.3736409954645428e-05  1.3728942585541820e-05  1.3727697597190343e-05  1.3732684382886041e-05  1.3743881227452335e-05  1.3761219764451733e-05  1.3784542756861973e-05  1.3813525092137016e-05  1.3847552837159848e-05  1.3885566952600486e-05  1.3925889003811706e-05  1.3966049968784986e-05  1.4002642397737485e-05  1.4031228549012406e-05  1.4046364302612059e-05  1.4041819176891742e-05  1.4011049527880183e-05  1.3947863149022468e-05  1.3847442502371150e-05  1.3708194534696576e-05  1.3534459169059880e-05  1.3339205956021059e-05  1.3143820863900818e-05  1.2974083057491721e-05  1.2852167030845843e-05  1.2784566839504727e-05  1.2758017817222329e-05  3.8280153038813724e-05  1.2761181803103798e-05  6.3871620892767083e-06  6.4333139541109913e-06  6.5359264687485199e-06  6.7048019464336417e-06  6.9293393363905062e-06  7.1833941393979942e-06  7.4356221750789969e-06  7.6591152512559086e-06  7.8370002133816327e-06  7.9626699410810188e-06  8.0372478711500676e-06  8.0669678634976657e-06  8.0609338776468606e-06  8.0291128816094033e-06  7.9808087787811179e-06  7.9238339537328039e-06  7.8642666785101966e-06  7.8065407461539931e-06  7.7536799697452929e-06  7.7075883445659042e-06  7.6693525865163601e-06  7.6395218335708843e-06  7.6183339599397716e-06  7.6058731167137038e-06  7.6021625537218921e-06  7.6072091314815450e-06  7.6210156652055748e-06  7.6435665402464444e-06  7.6747779314989781e-06  7.7143949404288452e-06  7.7618206089889594e-06  7.8158763969735648e-06  7.8745129177365222e-06  7.9345015709959663e-06  7.9911412461447668e-06  8.0380434371094916e-06  8.0671171751208711e-06  8.0689718493128931e-06  8.0338475140238070e-06  7.9530034357377646e-06  7.8204913897513224e-06  7.6358250147959367e-06  7.4069293494343041e-06  7.1525907007865815e-06  6.9006861955414868e-06  6.6814229690091699e-06  6.5197653154172166e-06  6.4250863273180242e-06  6.3844680444292045e-06  1.2756499767147899e-05  1.2775527616663005e-05  6.4017137893826819e-06  6.4615527625379037e-06  6.5921786878829239e-06  6.8027642176187699e-06  7.0786158040364008e-06  7.3892223115845972e-06  7.6972631679064996e-06  7.9699851328465728e-06  8.1868794448122274e-06  8.3394664593766391e-06  8.4282663014018840e-06  8.4604677093858983e-06  8.4475263206488329e-06  8.4023436043333492e-06  8.3369748336380670e-06  8.2614516973090383e-06  8.1834919828933381e-06  8.1086478444179981e-06  8.0406230066533762e-06  7.9816605277918223e-06  7.9329553573165361e-06  7.8950397345205053e-06  7.8680905546198328e-06  7.8521340806983420e-06  7.8471575348149994e-06  7.8531574842334016e-06  7.8701533652732814e-06  7.8981759138975705e-06  7.9372160878200689e-06  7.9871036595202205e-06  8.0472874368129676e-06  8.1165130411594636e-06  8.1924308620695355e-06  8.2711782317015034e-06  8.3469748068706924e-06  8.4118043328257814e-06  8.4553346430725041e-06  8.4654729260857840e-06  8.4296238805127657e-06  8.3369451122245043e-06  8.1801234565115742e-06  7.9585128130131035e-06  7.6810335371288301e-06  7.3702455901998987e-06  7.0608955227904267e-06  6.7876065401890828e-06  6.5795299248049600e-06  6.4533944489263441e-06  6.3983923778768301e-06  1.2766846132181377e-05  1.2789528292849581e-05  6.4226604617428165e-06  6.5062899546529197e-06  6.6699077498006726e-06  6.9098532844953576e-06  7.2050164013886926e-06  7.5257840125966390e-06  7.8333110730159037e-06  8.0964266029278355e-06  8.2999148365033400e-06  8.4385955552229163e-06  8.5135525326171748e-06  8.5321091566317915e-06  8.5063356640950989e-06  8.4497593522190655e-06  8.3746879004226730e-06  8.2911243075267989e-06  8.2066728399137529e-06  8.1267587169124235e-06  8.0549261257770193e-06  7.9932090223823116e-06  7.9425681628237949e-06  7.9033243130271125e-06  7.8755016299372988e-06  7.8590387770772985e-06  7.8538841169326348e-06  7.8600240569679174e-06  7.8774896070508106e-06  7.9063564829574756e-06  7.9467160717360454e-06  7.9985678202988643e-06  8.0615870629373689e-06  8.1347622487063119e-06  8.2159614026835752e-06  8.3014954416624907e-06  8.3857326929736420e-06  8.4607410605502610e-06  8.5160689806608909e-06  8.5392058613142919e-06  8.5170974892741437e-06  8.4395410711276672e-06  8.2982915249357944e-06  8.0903970053568513e-06  7.8212671269672510e-06  7.5082834050685322e-06  7.1884152762832974e-06  6.8947783181719197e-06  6.6532375623990870e-06  6.4912110081352202e-06  6.4150402049174046e-06  1.2781413071664579e-05  1.2787011501253901e-05  6.4485967049498478e-06  6.5962733972504039e-06  6.8312863934233735e-06  7.1092487393769241e-06  7.4164207147208456e-06  7.7393369671308460e-06  8.0303574092762160e-06  8.2648093779040820e-06  8.4395395946695326e-06  8.5528086385387967e-06  8.6043806507282239e-06  8.6010292790292433e-06  8.5557978788142744e-06  8.4830042407916218e-06  8.3949145026176922e-06  8.3010983081632447e-06  8.2087562646005191e-06  8.1230070625692252e-06  8.0470887876787958e-06  7.9826675338765560e-06  7.9303083214713748e-06  7.8899900702559365e-06  7.8615062950126789e-06  7.8446775025711666e-06  7.8394082331550210e-06  7.8456744916232308e-06  7.8635159900877026e-06  7.8930583933870636e-06  7.9345289084277773e-06  7.9881819805331364e-06  8.0540541512095338e-06  8.1315334146106661e-06  8.2188469543845181e-06  8.3126361962812516e-06  8.4076495171270750e-06  8.4962582878706307e-06  8.5681675888365070e-06  8.6104819904958540e-06  8.6102069749549418e-06  8.5572216548365949e-06  8.4435977717272782e-06  8.2647933709026308e-06  8.0269482871012947e-06  7.7244405897316593e-06  7.4030228111208571e-06  7.1026844078167605e-06  6.8158770597802259e-06  6.5722119682242856e-06  6.4291074364672728e-06  1.2786861065243929e-05  1.2790361680785828e-05  6.5186693312608469e-06  6.9624314812294881e-06  7.5784632536420060e-06  7.8720718603312775e-06  7.9976994914809085e-06  8.1623591456203147e-06  8.3420266812676561e-06  8.5021062974002669e-06  8.6279263265693552e-06  8.7057555849277268e-06  8.7250849456134878e-06  8.6909322839781761e-06  8.6187052685416702e-06  8.5240734748890843e-06  8.4188174954087012e-06  8.3115823631447874e-06  8.2089509523135983e-06  8.1156752297630614e-06  8.0346156775332252e-06  7.9669184866265548e-06  7.9125594693755715e-06  7.8710167800508762e-06  7.8417709028562382e-06  7.8245081864040432e-06  7.8191015264382075e-06  7.8255224831325295e-06  7.8438072037379361e-06  7.8741181458186554e-06  7.9168426589629220e-06  7.9725869285108868e-06  8.0419184837633226e-06  8.1248163529967042e-06  8.2199888947417339e-06  8.3245273810703382e-06  8.4336144841155315e-06  8.5402290790806571e-06  8.6350446286648768e-06  8.7039110462838961e-06  8.7330786642102818e-06  8.7087893563618723e-06  8.6505015492130551e-06  8.5360303643951423e-06  8.4150991113352971e-06  8.2621511583910441e-06  8.1446702464414202e-06  7.9794777168491476e-06  7.3990568967320215e-06  6.7791701019200117e-06  6.4510985696001662e-06  1.2775907972208699e-05  1.3254842993163317e-05  7.0524040580875363e-06  9.6589647423650758e-06  1.6972593665629798e-05  2.2058844243250065e-05  1.5509780789747821e-05  1.1126819238877056e-05  9.3608119452478679e-06  8.9058249220303008e-06  8.8842417794866226e-06  8.9053756403879598e-06  8.8809170418389432e-06  8.8042179277089452e-06  8.6959014719607107e-06  8.5735424648058740e-06  8.4469999997449234e-06  8.3231334686794998e-06  8.2077171731092678e-06  8.1051904885725961e-06  8.0180223499107813e-06  7.9466440835629934e-06  7.8901628205669934e-06  7.8473402897082629e-06  7.8172593066779077e-06  7.7994887051815078e-06  7.7939156724380636e-06  7.8005253315928271e-06  7.8193205057905401e-06  7.8504502140446231e-06  7.8944573065558072e-06  7.9524098013883576e-06  8.0256425432093202e-06  8.1150121960040395e-06  8.2198176489799732e-06  8.3376067008672438e-06  8.4639919571320068e-06  8.5938786624756428e-06  8.7186794685204464e-06  8.8212609705151555e-06  8.8912589778128717e-06  8.9139855491754465e-06  8.9932321391866288e-06  9.1326301644124459e-06  9.8281886875811149e-06  1.1332233850867264e-05  1.4767028242517213e-05  2.1725756644858733e-05  1.7880190262272498e-05  1.0249620004864187e-05  6.9283386799314013e-06  1.2829509740622459e-05  1.4412204443946380e-05  1.5751631453545779e-05  2.9581202235852269e-02  5.7055443772041699e-02  5.3001667386284555e-02  3.3284105193064392e-02  1.0411113976472494e-02  3.0900476047465654e-05  1.1738454512971622e-05  9.5123345238556155e-06  9.1949543123051558e-06  9.0833622701232957e-06  8.9422009415050379e-06  8.7861777472398921e-06  8.6304462488417157e-06  8.4788088725346625e-06  8.3350808946230423e-06  8.2042408389898387e-06  8.0907027168389544e-06  7.9966461776647387e-06  7.9214977262514840e-06  7.8630533223955432e-06  7.8190500370635369e-06  7.7880974508622438e-06  7.7697290835456146e-06  7.7639513567073833e-06  7.7708015967100945e-06  7.7901909003339554e-06  7.8221360155922123e-06  7.8672739171812898e-06  7.9272575152331217e-06  8.0045207662021016e-06  8.1012699941296664e-06  8.2175180094246219e-06  8.3510371824165968e-06  8.4983332183328675e-06  8.6565831773684141e-06  8.8163099597816742e-06  8.9747772209174154e-06  9.1180332403900325e-06  9.2722408967967633e-06  1.0092595160238012e-05  1.2219561263320523e-05  2.4199245448923654e-05  7.6591109174078955e-03  2.9003785628656995e-02  4.9964380975683502e-02  5.7470456960866285e-02  4.1197469522989534e-02  1.6265643381515555e-05  1.4355918809668916e-05  3.1706709127461976e-05  8.9859010141762258e-02  2.0992379947235459e-01  2.1425869426647592e-01  1.8038126389248108e-01  1.3258722912494122e-01  8.2142775835563564e-02  3.7695360055042808e-02  5.7668434079900148e-03  1.6362945007888562e-05  1.0308484412923533e-05  9.4089727979670384e-06  9.1113120428662349e-06  8.8871831000894284e-06  8.6938892933567117e-06  8.5137275366926860e-06  8.3467721657256006e-06  8.1975010171307790e-06  8.0710120018929245e-06  7.9695547275955435e-06  7.8910373510817353e-06  7.8311964840179817e-06  7.7862929540585248e-06  7.7544275096422945e-06  7.7353080933552777e-06  7.7292604373210621e-06  7.7364459116349024e-06  7.7565844385637708e-06  7.7893188301548512e-06  7.8352141757538892e-06  7.8966122236694304e-06  7.9775334305921360e-06  8.0824267466251554e-06  8.2124253379610769e-06  8.3640006340695061e-06  8.5360801613486869e-06  8.7240169721994534e-06  8.9394620784880185e-06  9.2098312301852210e-06  9.6027442688292373e-06  1.0801559470957305e-05  1.6339032791499792e-05  2.5406430288750863e-03  3.0885650560845749e-02  7.5969287154378951e-02  1.2829726812213113e-01  1.7546962852970224e-01  2.0844834140527160e-01  2.0798608220780607e-01  1.1422876219492292e-01  2.3321372250625458e-05  4.0105502169991131e-01  4.6422164173129049e-01  4.9582751672721770e-01  4.2304662621495126e-01  3.5491081276098518e-01  2.7486895162163449e-01  1.9377907086713117e-01  1.1962982518627621e-01  5.9891194952962148e-02  1.6914767386063269e-02  2.9132501825221126e-05  1.1333137815070724e-05  9.4254023107659292e-06  9.0107537329093776e-06  8.7664261736863106e-06  8.5521039601887772e-06  8.3580044183262500e-06  8.1864109249374820e-06  8.0444755649999161e-06  7.9355281949169454e-06  7.8548275718146110e-06  7.7947446463119907e-06  7.7494089973310436e-06  7.7164845139458103e-06  7.6963057655406492e-06  7.6898645928700665e-06  7.6975656420883043e-06  7.7187940457549376e-06  7.7523581499664741e-06  7.7983824274091462e-06  7.8599401328323693e-06  7.9434550348902083e-06  8.0568949926847037e-06  8.2042679031035317e-06  8.3751553978041474e-06  8.5803540993041768e-06  8.8046011266229974e-06  9.1423745685734726e-06  9.8908232156939617e-06  1.1804834474701943e-05  2.3671282687301391e-05  1.1787193632691501e-02  5.3547676737802252e-02  1.1620138172966581e-01  1.8976130395230006e-01  2.7060993945633915e-01  3.5079244757742700e-01  4.1783195299790193e-01  4.4816450037752831e-01  4.6926058619812278e-01  3.5716438746575424e-01  9.9992160081578862e-01  9.9068674095173170e-01  7.8639104036067764e-01  6.6342275867732015e-01  5.5674862152475724e-01  4.4316849040585360e-01  3.3546177892506890e-01  2.3492351592794367e-01  1.4681658090986452e-01  7.6667227166108215e-02  2.7310764371881922e-02  1.9236497428767101e-04  1.2617531465282978e-05  9.4652925046628386e-06  8.8940180449346955e-06  8.6011501608285138e-06  8.3716168640876474e-06  8.1706299272215211e-06  8.0089773608421387e-06  7.8932236514450273e-06  7.8127168036002158e-06  7.7543372326366460e-06  7.7091701768047788e-06  7.6747149930833379e-06  7.6528659172452922e-06  7.6458315976798632e-06  7.6543549995307448e-06  7.6773983104341768e-06  7.7120929114577328e-06  7.7573545133676810e-06  7.8170597299812131e-06  7.9011239014272763e-06  8.0222644555581436e-06  8.1968353385346287e-06  8.3924877221307046e-06  8.6542269427062287e-06  8.9948092541052156e-06  1.0119704761787019e-05  1.3254971227881106e-05  5.0119849527759058e-05  2.1528771215047360e-02  7.1522653855580751e-02  1.4387711346556414e-01  2.3109638504092289e-01  3.3165699582798147e-01  4.4148516938830440e-01  5.4401747994337546e-01  6.5577462677256482e-01  8.0495118568564805e-01  9.9930974353828772e-01  9.9976764889614511e-01  9.9998426076533531e-01  9.9998624879758169e-01  9.9995099634228857e-01  9.0650469062156347e-01  7.4438551713672851e-01  6.1525992648890615e-01  4.8867640922102451e-01  3.6899947702869190e-01  2.5992381554369642e-01  1.6591204265839588e-01  9.1176378534830974e-02  3.8459137096448701e-02  5.5255106624058263e-03  1.6181427947372668e-05  9.9743192466308618e-06  8.8068905198235908e-06  8.4327257651012407e-06  8.1646730871640722e-06  7.9686989499427374e-06  7.8459056106016106e-06  7.7680080192706223e-06  7.7135669284985048e-06  7.6687941961638084e-06  7.6313856046398684e-06  7.6066947360994085e-06  7.5987585107046904e-06  7.6084960721824935e-06  7.6351164680123963e-06  7.6723835641227619e-06  7.7165683245336543e-06  7.7731212579346878e-06  7.8564353438418193e-06  7.9872047875868990e-06  8.2195943720129879e-06  8.4918553338772293e-06  9.0911992830696654e-06  1.0529357754536841e-05  1.6015156824800248e-05  2.2057227155453728e-03  3.2576455075480161e-02  8.7352121036037025e-02  1.6318060114718416e-01  2.5701218113758223e-01  3.6641030393442697e-01  4.8809988572379381e-01  6.0965295818906973e-01  7.4102929307741094e-01  9.3992090935194283e-01  9.9996766213587618e-01  9.9998775171742027e-01  9.9997841508142749e-01  9.9998959797021314e-01  9.9999307967732820e-01  9.9998613613723297e-01  9.9994662770359077e-01  9.1113433481941208e-01  7.6762408975871055e-01  6.3627375344171566e-01  5.0821320387514701e-01  3.8675665306431223e-01  2.7653231984226950e-01  1.8217716104003473e-01  1.0664471146265300e-01  5.1995598091641872e-02  1.6006706498634983e-02  4.0909367575743868e-05  1.2728173123986434e-05  9.5032103767414828e-06  8.4950677836177343e-06  8.0860351635905793e-06  7.8924523257750428e-06  7.7858335449364625e-06  7.7197146053364274e-06  7.6659070985074514e-06  7.6187045580030563e-06  7.5880384277617212e-06  7.5787072373621183e-06  7.5909233546682550e-06  7.6266281977390994e-06  7.6752031652659965e-06  7.7314476258752794e-06  7.8094676355315089e-06  7.9381522776403849e-06  8.1777739447111733e-06  8.8072194861204378e-06  9.9339784594049461e-06  1.2584043847135419e-05  3.1534858377668756e-05  1.1568935580490181e-02  4.7199265768397232e-02  1.0429453349074513e-01  1.7947940667435083e-01  2.7422067503146913e-01  3.8517618389694080e-01  5.0813806528838745e-01  6.3613691777568437e-01  7.6459009852519855e-01  9.3914329824980280e-01  9.9995841941232566e-01  9.9998654354314009e-01  9.9999306833350210e-01  9.9998877573674794e-01  9.9998898970949712e-01  9.9999360215561306e-01  9.9998940187068031e-01  9.9997584965460729e-01  9.9984303465356394e-01  8.8357412736926033e-01  7.6317219657479296e-01  6.3853966548554408e-01  5.1535345592966331e-01  3.9799126323571671e-01  2.9173941564407485e-01  2.0088383960481015e-01  1.2769185744247177e-01  7.3228307796743483e-02  3.5892972889848003e-02  1.1558927430699330e-02  6.1305937756817494e-05  1.6556553625355167e-05  1.1664033037826434e-05  1.0117484100198054e-05  9.3754290248265520e-06  8.9689439270730096e-06  8.7032967551599464e-06  8.5289665274109137e-06  8.4450171116915342e-06  8.4263360268943949e-06  8.4648079013320619e-06  8.5815917102666349e-06  8.7576017840714501e-06  9.0021348257555688e-06  9.4108723009375146e-06  1.0138890080130247e-05  1.1606036987260467e-05  1.5983629541446103e-05  4.8628871322604531e-05  8.5886061942639057e-03  3.1001476468747669e-02  7.0150502295905359e-02  1.2597648947008705e-01  1.9874258460764357e-01  2.8992535204233971e-01  3.9732192246101866e-01  5.1559940958811068e-01  6.4048540386022379e-01  7.6243177063764489e-01  8.9711898226781861e-01  9.9988879120706231e-01  9.9997569413960130e-01  9.9998902519384714e-01  9.9999344096674092e-01  9.9998965130227935e-01  9.9997991951075260e-01  9.9999041354604679e-01  9.9998605776115179e-01  9.9997492406503607e-01  9.9992563508842625e-01  9.6137107180481163e-01  8.5591962810028355e-01  7.4854651882745071e-01  6.3442709695726429e-01  5.1977113987181300e-01  4.1070245705906405e-01  3.1241838176776648e-01  2.2863355950526704e-01  1.6105084004620346e-01  1.0938655380869980e-01  7.2257065303710316e-02  4.6696014462192223e-02  2.8494587040985828e-02  1.6401135392628361e-02  9.2383321133417354e-03  4.7111501634032335e-03  1.8870343983241448e-03  3.7378742863352558e-04  1.1768269384524877e-04  7.9881705524327033e-05  7.2427719610547870e-05  7.8395414692080951e-05  1.1110250643902121e-04  3.1477205069412013e-04  1.6663236605634001e-03  4.3189506319038957e-03  8.4972342665547082e-03  1.5125503539720800e-02  2.5467462884985866e-02  4.3022818418779807e-02  7.0298117998545087e-02  1.0826141514111541e-01  1.5976715126109359e-01  2.2715494590555363e-01  3.1148088508326621e-01  4.1067704111935854e-01  5.2065663841057486e-01  6.3627481898971960e-01  7.5169097616857206e-01  8.5928697877351945e-01  9.7070187228200466e-01  9.9992265294042204e-01  9.9997231523746555e-01  9.9998485536676529e-01  9.9998978987357390e-01  9.9998487683628690e-01  9.9978563420318123e-01  9.9995687735949135e-01  9.9995444616552154e-01  9.9993730285821059e-01  9.9986288934544854e-01  9.8199676555550064e-01  9.0851995539186814e-01  8.2983431571501021e-01  7.3431223905472365e-01  6.3209257398243934e-01  5.2942918543540807e-01  4.3260116535336607e-01  3.4639491783542059e-01  2.7365650504029349e-01  2.1526395310492236e-01  1.7030368038286117e-01  1.3669889872587299e-01  1.1244892829083140e-01  9.5706856684141542e-02  8.4067644483795140e-02  7.5742656673630449e-02  7.0098308186084715e-02  6.6320020635200719e-02  6.3809577144048432e-02  6.2310933144350093e-02  6.1798127979217209e-02  6.2113831713327725e-02  6.3342864961367665e-02  6.5770761831976651e-02  6.9591142880151585e-02  7.5161344296495319e-02  8.3336926126562516e-02  9.5210274113871257e-02  1.1235199565697013e-01  1.3660004096683448e-01  1.6974939730646491e-01  2.1435745561802508e-01  2.7305278379211501e-01  3.4640483137383771e-01  4.3328465452315523e-01  5.3079951481867904e-01  6.3434134240029383e-01  7.3766068767255688e-01  8.3373752910000887e-01  9.1651028065915507e-01  9.8197059400514231e-01  9.9982871680076602e-01  9.9992872602294569e-01  9.9995439198087210e-01  9.9996273185245510e-01  9.9993977158729019e-01  3.3927276003692375e-01  6.4697933707569910e-01  8.0604866539404441e-01  9.0164769062772521e-01  9.4198172097302069e-01  9.4471830535863655e-01  9.2239793058573671e-01  8.7655394132665987e-01  8.0792689086652392e-01  7.2656069930689948e-01  6.3894377475030628e-01  5.5230267114823595e-01  4.722875732