<?xml version="1.0"?>
<VTKFile type="UnstructuredGrid"  version="0.1"  >
<UnstructuredGrid>
<Piece  NumberOfPoints="2601" NumberOfCells="5000">
<Points>
<DataArray  type="Float64"  NumberOfComponents="3"  format="ascii">0 0 0  0.03 0 0  0.06 0 0  0.09 0 0  0.12 0 0  0.15 0 0  0.18 0 0  0.21 0 0  0.24 0 0  0.27 0 0  0.3 0 0  0.33 0 0  0.36 0 0  0.39 0 0  0.42 0 0  0.45 0 0  0.48 0 0  0.51 0 0  0.54 0 0  0.57 0 0  0.6 0 0  0.63 0 0  0.66 0 0  0.6899999999999999 0 0  0.72 0 0  0.75 0 0  0.78 0 0  0.8100000000000001 0 0  0.84 0 0  0.87 0 0  0.9 0 0  0.93 0 0  0.96 0 0  0.99 0 0  1.02 0 0  1.05 0 0  1.08 0 0  1.11 0 0  1.14 0 0  1.17 0 0  1.2 0 0  1.23 0 0  1.26 0 0  1.29 0 0  1.32 0 0  1.35 0 0  1.38 0 0  1.41 0 0  1.44 0 0  1.47 0 0  1.5 0 0  0 0.02 0  0.03 0.02 0  0.06 0.02 0  0.09 0.02 0  0.12 0.02 0  0.15 0.02 0  0.18 0.02 0  0.21 0.02 0  0.24 0.02 0  0.27 0.02 0  0.3 0.02 0  0.33 0.02 0  0.36 0.02 0  0.39 0.02 0  0.42 0.02 0  0.45 0.02 0  0.48 0.02 0  0.51 0.02 0  0.54 0.02 0  0.57 0.02 0  0.6 0.02 0  0.63 0.02 0  0.66 0.02 0  0.6899999999999999 0.02 0  0.72 0.02 0  0.75 0.02 0  0.78 0.02 0  0.8100000000000001 0.02 0  0.84 0.02 0  0.87 0.02 0  0.9 0.02 0  0.93 0.02 0  0.96 0.02 0  0.99 0.02 0  1.02 0.02 0  1.05 0.02 0  1.08 0.02 0  1.11 0.02 0  1.14 0.02 0  1.17 0.02 0  1.2 0.02 0  1.23 0.02 0  1.26 0.02 0  1.29 0.02 0  1.32 0.02 0  1.35 0.02 0  1.38 0.02 0  1.41 0.02 0  1.44 0.02 0  1.47 0.02 0  1.5 0.02 0  0 0.04 0  0.03 0.04 0  0.06 0.04 0  0.09 0.04 0  0.12 0.04 0  0.15 0.04 0  0.18 0.04 0  0.21 0.04 0  0.24 0.04 0  0.27 0.04 0  0.3 0.04 0  0.33 0.04 0  0.36 0.04 0  0.39 0.04 0  0.42 0.04 0  0.45 0.04 0  0.48 0.04 0  0.51 0.04 0  0.54 0.04 0  0.57 0.04 0  0.6 0.04 0  0.63 0.04 0  0.66 0.04 0  0.6899999999999999 0.04 0  0.72 0.04 0  0.75 0.04 0  0.78 0.04 0  0.8100000000000001 0.04 0  0.84 0.04 0  0.87 0.04 0  0.9 0.04 0  0.93 0.04 0  0.96 0.04 0  0.99 0.04 0  1.02 0.04 0  1.05 0.04 0  1.08 0.04 0  1.11 0.04 0  1.14 0.04 0  1.17 0.04 0  1.2 0.04 0  1.23 0.04 0  1.26 0.04 0  1.29 0.04 0  1.32 0.04 0  1.35 0.04 0  1.38 0.04 0  1.41 0.04 0  1.44 0.04 0  1.47 0.04 0  1.5 0.04 0  0 0.06 0  0.03 0.06 0  0.06 0.06 0  0.09 0.06 0  0.12 0.06 0  0.15 0.06 0  0.18 0.06 0  0.21 0.06 0  0.24 0.06 0  0.27 0.06 0  0.3 0.06 0  0.33 0.06 0  0.36 0.06 0  0.39 0.06 0  0.42 0.06 0  0.45 0.06 0  0.48 0.06 0  0.51 0.06 0  0.54 0.06 0  0.57 0.06 0  0.6 0.06 0  0.63 0.06 0  0.66 0.06 0  0.6899999999999999 0.06 0  0.72 0.06 0  0.75 0.06 0  0.78 0.06 0  0.8100000000000001 0.06 0  0.84 0.06 0  0.87 0.06 0  0.9 0.06 0  0.93 0.06 0  0.96 0.06 0  0.99 0.06 0  1.02 0.06 0  1.05 0.06 0  1.08 0.06 0  1.11 0.06 0  1.14 0.06 0  1.17 0.06 0  1.2 0.06 0  1.23 0.06 0  1.26 0.06 0  1.29 0.06 0  1.32 0.06 0  1.35 0.06 0  1.38 0.06 0  1.41 0.06 0  1.44 0.06 0  1.47 0.06 0  1.5 0.06 0  0 0.08 0  0.03 0.08 0  0.06 0.08 0  0.09 0.08 0  0.12 0.08 0  0.15 0.08 0  0.18 0.08 0  0.21 0.08 0  0.24 0.08 0  0.27 0.08 0  0.3 0.08 0  0.33 0.08 0  0.36 0.08 0  0.39 0.08 0  0.42 0.08 0  0.45 0.08 0  0.48 0.08 0  0.51 0.08 0  0.54 0.08 0  0.57 0.08 0  0.6 0.08 0  0.63 0.08 0  0.66 0.08 0  0.6899999999999999 0.08 0  0.72 0.08 0  0.75 0.08 0  0.78 0.08 0  0.8100000000000001 0.08 0  0.84 0.08 0  0.87 0.08 0  0.9 0.08 0  0.93 0.08 0  0.96 0.08 0  0.99 0.08 0  1.02 0.08 0  1.05 0.08 0  1.08 0.08 0  1.11 0.08 0  1.14 0.08 0  1.17 0.08 0  1.2 0.08 0  1.23 0.08 0  1.26 0.08 0  1.29 0.08 0  1.32 0.08 0  1.35 0.08 0  1.38 0.08 0  1.41 0.08 0  1.44 0.08 0  1.47 0.08 0  1.5 0.08 0  0 0.1 0  0.03 0.1 0  0.06 0.1 0  0.09 0.1 0  0.12 0.1 0  0.15 0.1 0  0.18 0.1 0  0.21 0.1 0  0.24 0.1 0  0.27 0.1 0  0.3 0.1 0  0.33 0.1 0  0.36 0.1 0  0.39 0.1 0  0.42 0.1 0  0.45 0.1 0  0.48 0.1 0  0.51 0.1 0  0.54 0.1 0  0.57 0.1 0  0.6 0.1 0  0.63 0.1 0  0.66 0.1 0  0.6899999999999999 0.1 0  0.72 0.1 0  0.75 0.1 0  0.78 0.1 0  0.8100000000000001 0.1 0  0.84 0.1 0  0.87 0.1 0  0.9 0.1 0  0.93 0.1 0  0.96 0.1 0  0.99 0.1 0  1.02 0.1 0  1.05 0.1 0  1.08 0.1 0  1.11 0.1 0  1.14 0.1 0  1.17 0.1 0  1.2 0.1 0  1.23 0.1 0  1.26 0.1 0  1.29 0.1 0  1.32 0.1 0  1.35 0.1 0  1.38 0.1 0  1.41 0.1 0  1.44 0.1 0  1.47 0.1 0  1.5 0.1 0  0 0.12 0  0.03 0.12 0  0.06 0.12 0  0.09 0.12 0  0.12 0.12 0  0.15 0.12 0  0.18 0.12 0  0.21 0.12 0  0.24 0.12 0  0.27 0.12 0  0.3 0.12 0  0.33 0.12 0  0.36 0.12 0  0.39 0.12 0  0.42 0.12 0  0.45 0.12 0  0.48 0.12 0  0.51 0.12 0  0.54 0.12 0  0.57 0.12 0  0.6 0.12 0  0.63 0.12 0  0.66 0.12 0  0.6899999999999999 0.12 0  0.72 0.12 0  0.75 0.12 0  0.78 0.12 0  0.8100000000000001 0.12 0  0.84 0.12 0  0.87 0.12 0  0.9 0.12 0  0.93 0.12 0  0.96 0.12 0  0.99 0.12 0  1.02 0.12 0  1.05 0.12 0  1.08 0.12 0  1.11 0.12 0  1.14 0.12 0  1.17 0.12 0  1.2 0.12 0  1.23 0.12 0  1.26 0.12 0  1.29 0.12 0  1.32 0.12 0  1.35 0.12 0  1.38 0.12 0  1.41 0.12 0  1.44 0.12 0  1.47 0.12 0  1.5 0.12 0  0 0.14 0  0.03 0.14 0  0.06 0.14 0  0.09 0.14 0  0.12 0.14 0  0.15 0.14 0  0.18 0.14 0  0.21 0.14 0  0.24 0.14 0  0.27 0.14 0  0.3 0.14 0  0.33 0.14 0  0.36 0.14 0  0.39 0.14 0  0.42 0.14 0  0.45 0.14 0  0.48 0.14 0  0.51 0.14 0  0.54 0.14 0  0.57 0.14 0  0.6 0.14 0  0.63 0.14 0  0.66 0.14 0  0.6899999999999999 0.14 0  0.72 0.14 0  0.75 0.14 0  0.78 0.14 0  0.8100000000000001 0.14 0  0.84 0.14 0  0.87 0.14 0  0.9 0.14 0  0.93 0.14 0  0.96 0.14 0  0.99 0.14 0  1.02 0.14 0  1.05 0.14 0  1.08 0.14 0  1.11 0.14 0  1.14 0.14 0  1.17 0.14 0  1.2 0.14 0  1.23 0.14 0  1.26 0.14 0  1.29 0.14 0  1.32 0.14 0  1.35 0.14 0  1.38 0.14 0  1.41 0.14 0  1.44 0.14 0  1.47 0.14 0  1.5 0.14 0  0 0.16 0  0.03 0.16 0  0.06 0.16 0  0.09 0.16 0  0.12 0.16 0  0.15 0.16 0  0.18 0.16 0  0.21 0.16 0  0.24 0.16 0  0.27 0.16 0  0.3 0.16 0  0.33 0.16 0  0.36 0.16 0  0.39 0.16 0  0.42 0.16 0  0.45 0.16 0  0.48 0.16 0  0.51 0.16 0  0.54 0.16 0  0.57 0.16 0  0.6 0.16 0  0.63 0.16 0  0.66 0.16 0  0.6899999999999999 0.16 0  0.72 0.16 0  0.75 0.16 0  0.78 0.16 0  0.8100000000000001 0.16 0  0.84 0.16 0  0.87 0.16 0  0.9 0.16 0  0.93 0.16 0  0.96 0.16 0  0.99 0.16 0  1.02 0.16 0  1.05 0.16 0  1.08 0.16 0  1.11 0.16 0  1.14 0.16 0  1.17 0.16 0  1.2 0.16 0  1.23 0.16 0  1.26 0.16 0  1.29 0.16 0  1.32 0.16 0  1.35 0.16 0  1.38 0.16 0  1.41 0.16 0  1.44 0.16 0  1.47 0.16 0  1.5 0.16 0  0 0.18 0  0.03 0.18 0  0.06 0.18 0  0.09 0.18 0  0.12 0.18 0  0.15 0.18 0  0.18 0.18 0  0.21 0.18 0  0.24 0.18 0  0.27 0.18 0  0.3 0.18 0  0.33 0.18 0  0.36 0.18 0  0.39 0.18 0  0.42 0.18 0  0.45 0.18 0  0.48 0.18 0  0.51 0.18 0  0.54 0.18 0  0.57 0.18 0  0.6 0.18 0  0.63 0.18 0  0.66 0.18 0  0.6899999999999999 0.18 0  0.72 0.18 0  0.75 0.18 0  0.78 0.18 0  0.8100000000000001 0.18 0  0.84 0.18 0  0.87 0.18 0  0.9 0.18 0  0.93 0.18 0  0.96 0.18 0  0.99 0.18 0  1.02 0.18 0  1.05 0.18 0  1.08 0.18 0  1.11 0.18 0  1.14 0.18 0  1.17 0.18 0  1.2 0.18 0  1.23 0.18 0  1.26 0.18 0  1.29 0.18 0  1.32 0.18 0  1.35 0.18 0  1.38 0.18 0  1.41 0.18 0  1.44 0.18 0  1.47 0.18 0  1.5 0.18 0  0 0.2 0  0.03 0.2 0  0.06 0.2 0  0.09 0.2 0  0.12 0.2 0  0.15 0.2 0  0.18 0.2 0  0.21 0.2 0  0.24 0.2 0  0.27 0.2 0  0.3 0.2 0  0.33 0.2 0  0.36 0.2 0  0.39 0.2 0  0.42 0.2 0  0.45 0.2 0  0.48 0.2 0  0.51 0.2 0  0.54 0.2 0  0.57 0.2 0  0.6 0.2 0  0.63 0.2 0  0.66 0.2 0  0.6899999999999999 0.2 0  0.72 0.2 0  0.75 0.2 0  0.78 0.2 0  0.8100000000000001 0.2 0  0.84 0.2 0  0.87 0.2 0  0.9 0.2 0  0.93 0.2 0  0.96 0.2 0  0.99 0.2 0  1.02 0.2 0  1.05 0.2 0  1.08 0.2 0  1.11 0.2 0  1.14 0.2 0  1.17 0.2 0  1.2 0.2 0  1.23 0.2 0  1.26 0.2 0  1.29 0.2 0  1.32 0.2 0  1.35 0.2 0  1.38 0.2 0  1.41 0.2 0  1.44 0.2 0  1.47 0.2 0  1.5 0.2 0  0 0.22 0  0.03 0.22 0  0.06 0.22 0  0.09 0.22 0  0.12 0.22 0  0.15 0.22 0  0.18 0.22 0  0.21 0.22 0  0.24 0.22 0  0.27 0.22 0  0.3 0.22 0  0.33 0.22 0  0.36 0.22 0  0.39 0.22 0  0.42 0.22 0  0.45 0.22 0  0.48 0.22 0  0.51 0.22 0  0.54 0.22 0  0.57 0.22 0  0.6 0.22 0  0.63 0.22 0  0.66 0.22 0  0.6899999999999999 0.22 0  0.72 0.22 0  0.75 0.22 0  0.78 0.22 0  0.8100000000000001 0.22 0  0.84 0.22 0  0.87 0.22 0  0.9 0.22 0  0.93 0.22 0  0.96 0.22 0  0.99 0.22 0  1.02 0.22 0  1.05 0.22 0  1.08 0.22 0  1.11 0.22 0  1.14 0.22 0  1.17 0.22 0  1.2 0.22 0  1.23 0.22 0  1.26 0.22 0  1.29 0.22 0  1.32 0.22 0  1.35 0.22 0  1.38 0.22 0  1.41 0.22 0  1.44 0.22 0  1.47 0.22 0  1.5 0.22 0  0 0.24 0  0.03 0.24 0  0.06 0.24 0  0.09 0.24 0  0.12 0.24 0  0.15 0.24 0  0.18 0.24 0  0.21 0.24 0  0.24 0.24 0  0.27 0.24 0  0.3 0.24 0  0.33 0.24 0  0.36 0.24 0  0.39 0.24 0  0.42 0.24 0  0.45 0.24 0  0.48 0.24 0  0.51 0.24 0  0.54 0.24 0  0.57 0.24 0  0.6 0.24 0  0.63 0.24 0  0.66 0.24 0  0.6899999999999999 0.24 0  0.72 0.24 0  0.75 0.24 0  0.78 0.24 0  0.8100000000000001 0.24 0  0.84 0.24 0  0.87 0.24 0  0.9 0.24 0  0.93 0.24 0  0.96 0.24 0  0.99 0.24 0  1.02 0.24 0  1.05 0.24 0  1.08 0.24 0  1.11 0.24 0  1.14 0.24 0  1.17 0.24 0  1.2 0.24 0  1.23 0.24 0  1.26 0.24 0  1.29 0.24 0  1.32 0.24 0  1.35 0.24 0  1.38 0.24 0  1.41 0.24 0  1.44 0.24 0  1.47 0.24 0  1.5 0.24 0  0 0.26 0  0.03 0.26 0  0.06 0.26 0  0.09 0.26 0  0.12 0.26 0  0.15 0.26 0  0.18 0.26 0  0.21 0.26 0  0.24 0.26 0  0.27 0.26 0  0.3 0.26 0  0.33 0.26 0  0.36 0.26 0  0.39 0.26 0  0.42 0.26 0  0.45 0.26 0  0.48 0.26 0  0.51 0.26 0  0.54 0.26 0  0.57 0.26 0  0.6 0.26 0  0.63 0.26 0  0.66 0.26 0  0.6899999999999999 0.26 0  0.72 0.26 0  0.75 0.26 0  0.78 0.26 0  0.8100000000000001 0.26 0  0.84 0.26 0  0.87 0.26 0  0.9 0.26 0  0.93 0.26 0  0.96 0.26 0  0.99 0.26 0  1.02 0.26 0  1.05 0.26 0  1.08 0.26 0  1.11 0.26 0  1.14 0.26 0  1.17 0.26 0  1.2 0.26 0  1.23 0.26 0  1.26 0.26 0  1.29 0.26 0  1.32 0.26 0  1.35 0.26 0  1.38 0.26 0  1.41 0.26 0  1.44 0.26 0  1.47 0.26 0  1.5 0.26 0  0 0.28 0  0.03 0.28 0  0.06 0.28 0  0.09 0.28 0  0.12 0.28 0  0.15 0.28 0  0.18 0.28 0  0.21 0.28 0  0.24 0.28 0  0.27 0.28 0  0.3 0.28 0  0.33 0.28 0  0.36 0.28 0  0.39 0.28 0  0.42 0.28 0  0.45 0.28 0  0.48 0.28 0  0.51 0.28 0  0.54 0.28 0  0.57 0.28 0  0.6 0.28 0  0.63 0.28 0  0.66 0.28 0  0.6899999999999999 0.28 0  0.72 0.28 0  0.75 0.28 0  0.78 0.28 0  0.8100000000000001 0.28 0  0.84 0.28 0  0.87 0.28 0  0.9 0.28 0  0.93 0.28 0  0.96 0.28 0  0.99 0.28 0  1.02 0.28
[...]
<PointData  Scalars="ControlVisualisation"> 
<DataArray  type="Float64"  Name="ControlVisualisation"  format="ascii">5.4484035212836891e-03  3.6429936606984610e-03  3.6546707998323350e-03  3.6786903995198951e-03  3.7156014706718862e-03  3.7610758066113038e-03  3.8085463096455634e-03  3.8522802142269448e-03  3.8887268919624717e-03  3.9164547341759949e-03  3.9355219299926324e-03  3.9468349046243092e-03  3.9516882499394364e-03  3.9514807370543683e-03  3.9475552125310450e-03  3.9411166688683190e-03  3.9331956490167392e-03  3.9246374004796069e-03  3.9161072680015153e-03  3.9081073535019994e-03  3.9010003538277166e-03  3.8950365406143221e-03  3.8903803361597235e-03  3.8871338478891409e-03  3.8853557002120355e-03  3.8850742972160032e-03  3.8862951613697254e-03  3.8890022329301725e-03  3.8931530596028564e-03  3.8986678073456016e-03  3.9054121975163562e-03  3.9131750331978313e-03  3.9216419756373183e-03  3.9303684051937406e-03  3.9387550444416391e-03  3.9460296841056014e-03  3.9512370312317323e-03  3.9532395263441773e-03  3.9507377467776668e-03  3.9423309641331925e-03  3.9266460974758735e-03  3.9025742112185307e-03  3.8696443926174496e-03  3.8285975631641780e-03  3.7820364021377692e-03  3.7347705938665940e-03  3.6932553835994928e-03  3.6633383665399455e-03  3.6468388107987141e-03  3.6403417225467165e-03  1.0765786670214366e-02  3.6411912405636426e-03  1.8272947230645693e-03  1.8400033215790134e-03  1.8682329460482825e-03  1.9146880716727633e-03  1.9759858936899671e-03  2.0444824095492897e-03  2.1117586196383975e-03  2.1711297605091894e-03  2.2186199036505882e-03  2.2528028201686391e-03  2.2741349029970085e-03  2.2842290202773293e-03  2.2852537069160059e-03  2.2795045355629138e-03  2.2691374563431890e-03  2.2560262556950354e-03  2.2417041940557135e-03  2.2273605050686122e-03  2.2138714334482418e-03  2.2018501968121286e-03  2.1917035770447351e-03  2.1836863622999238e-03  2.1779482917786423e-03  2.1745708933171093e-03  2.1735933976881330e-03  2.1750278145965828e-03  2.1788634640672656e-03  2.1850610098035077e-03  2.1935356289754103e-03  2.2041287662668816e-03  2.2165684145890787e-03  2.2304193713117764e-03  2.2450274374671980e-03  2.2594645615869459e-03  2.2724837848245739e-03  2.2824940542609785e-03  2.2875684702698194e-03  2.2855080079417834e-03  2.2739961262627081e-03  2.2508934176567507e-03  2.2147177386716349e-03  2.1652613240798449e-03  2.1043019367137056e-03  2.0362054189796870e-03  1.9679208829445627e-03  1.9078577012322478e-03  1.8634401189687073e-03  1.8375413768662000e-03  1.8264536139346154e-03  3.6399897590842106e-03  3.6447111737818228e-03  1.8312722150827117e-03  1.8482205577847869e-03  1.8852956350562215e-03  1.9453117615171255e-03  2.0234652081125419e-03  2.1104661060515422e-03  2.1961464061039321e-03  2.2721132556956644e-03  2.3330806474869004e-03  2.3768943764902674e-03  2.4038715131997584e-03  2.4159751510794258e-03  2.4160327527402332e-03  2.4071213996646689e-03  2.3921650803830114e-03  2.3737108440415465e-03  2.3538318445995420e-03  2.3341166435914963e-03  2.3157139564545857e-03  2.2994071652606279e-03  2.2856982839650642e-03  2.2748875554684253e-03  2.2671409023912025e-03  2.2625419650351658e-03  2.2611282273467758e-03  2.2629119784787549e-03  2.2678869713845117e-03  2.2760210257157811e-03  2.2872338915523377e-03  2.3013590361264991e-03  2.3180884248694654e-03  2.3369014547125317e-03  2.3569831625712546e-03  2.3771418002113535e-03  2.3957403223060754e-03  2.4106603688657672e-03  2.4193161743453263e-03  2.4187469927738898e-03  2.4058361123708337e-03  2.3777527399763926e-03  2.3326288442691860e-03  2.2703290387978666e-03  2.1931535740281282e-03  2.1066731642662316e-03  2.0194730463602467e-03  1.9414863569045782e-03  1.8819686448710508e-03  1.8460164297679292e-03  1.8303370002618446e-03  3.6425666537668443e-03  3.6480292890421870e-03  1.8368396171263334e-03  1.8606236916852022e-03  1.9074752343156256e-03  1.9767749827951579e-03  2.0608875295541791e-03  2.1503578285518303e-03  2.2357488522557994e-03  2.3095000499446286e-03  2.3672122051283497e-03  2.4073387686787892e-03  2.4305268623030273e-03  2.4389461234597776e-03  2.4355551436193099e-03  2.4235045332014686e-03  2.4057592344254542e-03  2.3848889275845035e-03  2.3629727507095536e-03  2.3415875575152844e-03  2.3218546739609690e-03  2.3045194242051919e-03  2.2900412794982115e-03  2.2786792956936419e-03  2.2705641308800595e-03  2.2657530536319258e-03  2.2642676677631034e-03  2.2661155892929087e-03  2.2712973818211748e-03  2.2797991955706355e-03  2.2915701866902910e-03  2.3064827241195767e-03  2.3242737468277858e-03  2.3444681421344099e-03  2.3662899540297291e-03  2.3885730091862943e-03  2.4096909682396039e-03  2.4275234378226241e-03  2.4394628644937781e-03  2.4425083661707070e-03  2.4334670956080297e-03  2.4093802993744974e-03  2.3680727945449573e-03  2.3091324521828998e-03  2.2340239002329653e-03  2.1476730008805215e-03  2.0576546218431025e-03  1.9729365754587143e-03  1.9031225958636294e-03  1.8565941414827453e-03  1.8347598190907753e-03  3.6460860334600201e-03  3.6473984128292682e-03  1.8439739940815888e-03  1.8862957781116483e-03  1.9555638007477108e-03  2.0395319648843675e-03  2.1270109921999450e-03  2.2135685992913760e-03  2.2926885489336990e-03  2.3586915963143655e-03  2.4085802290488563e-03  2.4412663337873243e-03  2.4575771468115411e-03  2.4598601423381533e-03  2.4511541078957146e-03  2.4345928984067246e-03  2.4130873811730367e-03  2.3891464769907763e-03  2.3647839836129871e-03  2.3415035860989996e-03  2.3203464555642817e-03  2.3019751234852536e-03  2.2867694683473645e-03  2.2749179899100342e-03  2.2664943091261105e-03  2.2615146476906837e-03  2.2599763859133069e-03  2.2618797972720544e-03  2.2672350068181865e-03  2.2760549889327400e-03  2.2883333275528278e-03  2.3040036879447769e-03  2.3228779287433805e-03  2.3445633594748384e-03  2.3683667208011664e-03  2.3931983429696093e-03  2.4175012499001044e-03  2.4392127055936569e-03  2.4557942469182166e-03  2.4643581615539610e-03  2.4617234108217307e-03  2.4447442461923651e-03  2.4109040807798639e-03  2.3605797037092335e-03  2.2940798003250511e-03  2.2143669407741441e-03  2.1263448255122463e-03  2.0369572254425724e-03  1.9508285894354915e-03  1.8797874274875865e-03  1.8386810687408797e-03  3.6472755589165942e-03  3.6481798394731825e-03  1.8625967776132598e-03  1.9880217848913030e-03  2.1691051793646873e-03  2.2878151824747800e-03  2.3336084323404629e-03  2.3591363625735202e-03  2.3932688576896823e-03  2.4323906038155939e-03  2.4659468945889430e-03  2.4866300211621359e-03  2.4928758365421674e-03  2.4865629353945404e-03  2.4705941587750244e-03  2.4479616116310217e-03  2.4214525114284388e-03  2.3934721510936296e-03  2.3659324723649491e-03  2.3402266971820351e-03  2.3172780345420084e-03  2.2976292545332788e-03  2.2815463058252611e-03  2.2691178586766595e-03  2.2603380839939071e-03  2.2551669581132327e-03  2.2535690571957112e-03  2.2555346521181776e-03  2.2610863915170569e-03  2.2702730624651647e-03  2.2831487147140410e-03  2.2997322000061098e-03  2.3199412433210116e-03  2.3435017287057706e-03  2.3698412813621277e-03  2.3979816054166777e-03  2.4264599758528887e-03  2.4533147500878203e-03  2.4761963998409927e-03  2.4923379772672748e-03  2.4986477158864106e-03  2.4925755890689038e-03  2.4730741952445189e-03  2.4447305914899239e-03  2.4151296069732015e-03  2.3916428249576042e-03  2.3698344450687344e-03  2.3111939812071581e-03  2.1319056614561788e-03  1.9411278027654418e-03  1.8455209063724075e-03  3.6446065768993433e-03  3.7310663962405173e-03  2.0069973657311788e-03  2.7733270087757669e-03  4.5067282566210254e-03  5.5306638577112474e-03  4.4658644040436310e-03  3.3587621420342155e-03  2.7921848870104283e-03  2.5985358130376397e-03  2.5568494246272959e-03  2.5484446705786182e-03  2.5382544919152279e-03  2.5200821275403740e-03  2.4946515384626096e-03  2.4642602376200090e-03  2.4314147732665808e-03  2.3983634724570411e-03  2.3668777353300576e-03  2.3381986642071486e-03  2.3130892793898411e-03  2.2919304694416246e-03  2.2748339193573120e-03  2.2617541196859031e-03  2.2525804525007575e-03  2.2472003458162194e-03  2.2455367719768056e-03  2.2475673329544971e-03  2.2533300867176365e-03  2.2629186393192235e-03  2.2764647275484592e-03  2.2940997247672271e-03  2.3158848209169948e-03  2.3417081207503837e-03  2.3711581087875163e-03  2.4034102502714272e-03  2.4371424469884530e-03  2.4705773192451454e-03  2.5015337951389228e-03  2.5275248310882748e-03  2.5477959145766148e-03  2.5631302953454723e-03  2.5840872333563808e-03  2.6594031821904028e-03  2.8885156906669723e-03  3.3888415053935522e-03  4.3652135056169898e-03  5.5552077569239336e-03  4.6812715023084074e-03  2.8783152473119650e-03  1.9613938914914502e-03  3.6575517565502016e-03  4.0347484199141177e-03  3.9987086969663008e-03  3.5122717677803304e-02  6.4094176354205293e-02  6.1097224495517959e-02  4.2396672544398557e-02  2.0663416036505511e-02  7.3245539833540554e-03  3.6667267121098068e-03  2.8560447532317177e-03  2.6614618828841928e-03  2.6007682642580081e-03  2.5618760765386134e-03  2.5236146993784236e-03  2.4834660820590711e-03  2.4428279955959597e-03  2.4036265901567332e-03  2.3674220036328797e-03  2.3352439748012595e-03  2.3076446334342796e-03  2.2847927923944759e-03  2.2665955258582967e-03  2.2528309534130967e-03  2.2432548281334889e-03  2.2376652008352605e-03  2.2359350171135997e-03  2.2380267734181565e-03  2.2439965533774960e-03  2.2539908902946197e-03  2.2682369986650915e-03  2.2870098333006720e-03  2.3105612990934922e-03  2.3389943155921835e-03  2.3721129808168076e-03  2.4093326687944124e-03  2.4494990511542765e-03  2.4910650280814809e-03  2.5323893925824851e-03  2.5739736756967384e-03  2.6230237582190374e-03  2.7098298467095783e-03  2.9580792957066568e-03  3.7083477960778211e-03  6.6539669097202461e-03  1.7962202200085299e-02  3.8413722600380715e-02  5.8371078562776346e-02  6.3847239781702952e-02  4.5991073716734179e-02  3.9107504691948281e-03  3.8940316660820559e-03  8.0420365040461371e-03  9.2421392173480610e-02  2.1533721951557988e-01  2.2110518843989393e-01  1.8895898262956620e-01  1.4265273404044862e-01  9.3099729972725295e-02  4.8945957576463264e-02  1.7395978213479085e-02  5.3067486736331571e-03  3.1802822277253681e-03  2.7445506102132993e-03  2.6240073242898049e-03  2.5598485826783600e-03  2.5059441276649164e-03  2.4555565602672499e-03  2.4089917091226773e-03  2.3672782959015797e-03  2.3310997741759834e-03  2.3007323965034505e-03  2.2760715863582976e-03  2.2567524009067864e-03  2.2423223558226965e-03  2.2323713011872131e-03  2.2265921129723961e-03  2.2248006194659962e-03  2.2269424193925719e-03  2.2330938507181819e-03  2.2434598500427312e-03  2.2583797965084126e-03  2.2783070115807592e-03  2.3037485828549605e-03  2.3350995716780280e-03  2.3724652743053777e-03  2.4155702533402686e-03  2.4635629300080431e-03  2.5160435978895000e-03  2.5744551647556646e-03  2.6526907525823511e-03  2.8184846314003747e-03  3.2936641691595635e-03  5.0661868584960090e-03  1.4324976367362656e-02  4.2859153423063900e-02  8.7233859023249788e-02  1.3772093274749980e-01  1.8387807333108958e-01  2.1507981679539742e-01  2.1178704207063273e-01  1.1522237363590089e-01  6.1249513646347122e-03  4.1549304868390963e-01  4.6606027728666649e-01  4.9949065611402815e-01  4.2890102004488412e-01  3.6223500617382165e-01  2.8495474740508142e-01  2.0576550944852276e-01  1.3314135161719212e-01  7.3136549769495143e-02  2.9587644796310004e-02  8.0950948103255191e-03  3.6017857342049188e-03  2.8229976112422225e-03  2.6256401258513491e-03  2.5364203097921699e-03  2.4704947580378202e-03  2.4144667312314600e-03  2.3662449417265153e-03  2.3255196404872000e-03  2.2921414804086904e-03  2.2656331853921339e-03  2.2452501503198588e-03  2.2302341031632087e-03  2.2199744442972713e-03  2.2140471374432966e-03  2.2122063206537574e-03  2.2143801656639693e-03  2.2206673191968122e-03  2.2313326579610740e-03  2.2468398804897025e-03  2.2678622738963729e-03  2.2952501112097107e-03  2.3298307367846005e-03  2.3721484042373872e-03  2.4225149444355139e-03  2.4820820913818821e-03  2.5545505372242378e-03  2.6635467104230374e-03  2.9185313327309485e-03  3.6798642331813338e-03  7.1431406278706323e-03  2.5006722943256531e-02  6.6843980617543472e-02  1.2844325092657760e-01  2.0131552345012771e-01  2.7963518238315133e-01  3.5787479878701012e-01  4.2268541761204526e-01  4.5504519042635078e-01  4.7942309374641057e-01  3.5999886689408733e-01  9.8199301782383652e-01  9.5669883484629548e-01  7.9476592851429051e-01  6.6666776414310125e-01  5.6356013315858822e-01  4.5168358327041036e-01  3.4649368735988001e-01  2.4826896784693300e-01  1.6191851267575894e-01  9.2013189066222856e-02  4.1073139585868473e-02  1.2243363952816335e-02  4.2745243819137350e-03  2.9442584352289752e-03  2.6223640199379925e-03  2.4993929649869012e-03  2.4234694667698230e-03  2.3654917067771181e-03  2.3189015519351664e-03  2.2820431094291147e-03  2.2536356688025354e-03  2.2322861776601288e-03  2.2167974700298952e-03  2.2063162827523253e-03  2.2002951849820667e-03  2.1984233212206418e-03  2.2006114058668890e-03  2.2069857779619933e-03  2.2178737550914308e-03  2.2338622240158268e-03  2.2559274091604347e-03  2.2854020824589353e-03  2.3240491498869018e-03  2.3734570475989680e-03  2.4362255830859816e-03  2.5240253530200000e-03  2.6771396130971389e-03  3.0519172578482366e-03  4.2314347011900436e-03  1.0257633268864549e-02  3.5657288122971836e-02  8.6479746573671482e-02  1.5764289802591194e-01  2.4387079781673909e-01  3.4193218448201335e-01  4.4879131237676423e-01  5.5136541666259542e-01  6.6092192776856007e-01  8.0875144369755236e-01  9.6597527793823856e-01  9.6595615805741009e-01  9.9561456741415078e-01  9.9626366223450924e-01  9.8839268851147355e-01  8.9888837111809472e-01  7.4994824053761155e-01  6.2162612275588280e-01  4.9824119943637013e-01  3.8151875044472910e-01  2.7485800423609003e-01  1.8245733083325771e-01  1.0787273054990208e-01  5.3281607970412148e-02  1.8726909340205430e-02  5.7736189434444453e-03  3.2625010341168839e-03  2.6714937176468235e-03  2.4773195446080344e-03  2.3816117238740033e-03  2.3193812541746485e-03  2.2753967788405284e-03  2.2436845430360542e-03  2.2207973507944799e-03  2.2045769210254510e-03  2.1937513129904459e-03  2.1875944622280572e-03  2.1856969909183929e-03  2.1879452322419112e-03  2.1945289960239606e-03  2.2058872943288219e-03  2.2227698368228999e-03  2.2468294717399697e-03  2.2803620400266311e-03  2.3284135340430655e-03  2.3985558695554365e-03  2.5136195608236327e-03  2.7579636052460403e-03  3.3369898499842321e-03  5.3685620540388163e-03  1.5469014591124246e-02  4.7685809078216207e-02  1.0310649643741041e-01  1.7832609282064413e-01  2.7090614509826005e-01  3.7780170213658859e-01  4.9600494276029433e-01  6.1600227593424239e-01  7.4833261413440155e-01  9.2346593304451807e-01  9.9148193035096399e-01  9.9662319555329404e-01  9.9421980597569226e-01  9.9706284138921430e-01  9.9804244744683634e-01  9.9614913882132117e-01  9.8738315952051925e-01  9.0510699488962687e-01  7.7023894052490471e-01  6.4343141818665683e-01  5.1876008398219231e-01  4.0047818845372052e-01  2.9270964332570698e-01  1.9965775356543242e-01  1.2433216947983487e-01  6.8286979009025139e-02  3.0005774223744418e-02  1.0380391803076523e-02  4.4310447131309409e-03  3.0677609745435345e-03  2.6211521442759543e-03  2.4329808669987280e-03  2.3380606429891245e-03  2.2825758086248743e-03  2.2474524558453008e-03  2.2245964005633626e-03  2.2101863348291443e-03  2.2023343704270786e-03  2.2000656238707226e-03  2.2031503974839941e-03  2.2120990100587571e-03  2.2280840175815555e-03  2.2531879626761495e-03  2.2926495538195097e-03  2.3556383060319443e-03  2.4679257356080304e-03  2.6805999709238054e-03  3.1216997309812086e-03  4.3030463884593632e-03  8.9356621184789979e-03  2.5935029818252135e-02  6.3213035480796390e-02  1.2029112955015472e-01  1.9588446522653152e-01  2.8903916939041480e-01  3.9736463321292675e-01  5.1685522638894155e-01  6.4128703068562221e-01  7.7084477870011792e-01  9.2277077659276352e-01  9.8938365445515075e-01  9.9625970571649702e-01  9.9804155024956687e-01  9.9683886319738191e-01  9.9689474376969789e-01  9.9818387680812415e-01  9.9699808322938677e-01  9.9346708380177995e-01  9.7526280771083562e-01  8.8182832721603588e-01  7.6565627854101093e-01  6.4604604588024195e-01  5.2677134397744496e-01  4.1255747214944694e-01  3.0874039608314052e-01  2.1902054094010828e-01  1.4606708928036952e-01  9.0399613669302104e-02  5.0900944124125339e-02  2.5022380849865258e-02  1.1036729907178439e-02  5.7046138021945572e-03  3.9699833643856066e-03  3.2890941399397007e-03  2.9625537710944124e-03  2.7875203254505297e-03  2.6861319660542028e-03  2.6276660438820359e-03  2.5976972060124765e-03  2.5889465906015767e-03  2.5993413554315191e-03  2.6312396202627232e-03  2.6911115632860102e-03  2.7915548446445938e-03  2.9647010916372830e-03  3.2672764338690184e-03  3.8850575039018399e-03  5.3984460855307633e-03  9.9281765579735167e-03  2.2269719576415804e-02  4.6571572993629483e-02  8.6461774910841449e-02  1.4266144347261042e-01  2.1569325368499342e-01  3.0528011077649991e-01  4.0995544072339718e-01  5.2517438524805049e-01  6.4563131313881750e-01  7.6662248865074889e-01  8.9108168524734666e-01  9.7824076192414078e-01  9.9340127655633226e-01  9.9689918570424108e-01  9.9813986107248975e-01  9.9707718935823741e-01  9.9450394567380695e-01  9.9730366117702196e-01  9.9606846941191052e-01  9.9311863332295180e-01  9.8382641420972172e-01  9.4118206003689664e-01  8.5349284459781216e-01  7.5184360664544847e-01  6.4243551390682463e-01  5.3172847957694158e-01  4.2566572944429620e-01  3.2965066051327419e-01  2.4694444951949068e-01  1.7934514921400305e-01  1.2684820476992517e-01  8.8150248674416162e-02  6.0917220546958931e-02  4.1797802908460510e-02  2.8715012762021867e-02  2.1119140984874454e-02  1.6291370604068368e-02  1.3334010149133569e-02  1.1600439458303233e-02  1.0581128977847833e-02  1.0037359825959654e-02  9.8418395609900667e-03  9.9560351569340962e-03  1.0408397110781108e-02  1.1315203102014885e-02  1.2874481769807624e-02  1.5515827193527282e-02  1.9847259817691195e-02  2.6788282428784341e-02  3.8810756418503158e-02  5.7387370789369507e-02  8.5218906144515411e-02  1.2415029686206130e-01  1.7658791431026968e-01  2.4399320725131410e-01  3.2660318469306832e-01  4.2351191559393636e-01  5.3053057440708862e-01  6.4245994150619368e-01  7.5343056119900265e-01  8.5781449893407180e-01  9.4508556322238590e-01  9.8308766119633106e-01  9.9251072842080212e-01  9.9574473692025389e-01  9.9713529567638248e-01  9.9577082287620522e-01  9.6480707596946491e-01  9.8927499976624578e-01  9.8826270975121755e-01  9.8481048681800931e-01  9.7583861758693402e-01  9.5099819187040469e-01  9.0022169679416408e-01  8.2728745485453092e-01  7.3802987186575530e-01  6.4039866608935425e-01  5.4131612117365979e-01  4.4714803272874376e-01  3.6283163817501307e-01  2.9101809132764078e-01  2.3236117528755484e-01  1.8665345476539233e-01  1.5226971028247771e-01  1.2706184162811160e-01  1.0907805433655797e-01  9.6481495526732783e-02  8.7547794407990806e-02  8.1305554333033270e-02  7.7163373207275482e-02  7.4568342634225918e-02  7.3114531718758993e-02  7.2546991136349992e-02  7.2823839276552685e-02  7.4065241011799454e-02  7.6488951838357688e-02  8.0414015766294700e-02  8.6334941660138054e-02  9.5068313914945607e-02  1.0760255869426456e-01  1.2532537945775402e-01  1.5036930237794008e-01  1.8465987472505563e-01  2.3027938049333305e-01  2.8855205311408089e-01  3.6048524707081492e-01  4.4559081454398136e-01  5.4054278534894817e-01  6.4070685443556763e-01  7.3961404504245642e-01  8.3006453470177932e-01  9.0404496592209171e-01  9.5118360429299431e-01  9.7425910920349679e-01  9.8340997001746977e-01  9.8820696509392303e-01  9.9020992092147753e-01  9.8474841647650557e-01  3.4401285420971522e-01  6.5006513555189349e-01  7.9641307170389608e-01  8.8378858892007794e-01  9.1900967048978111e-01  9.2462143075223724e-01  9.0765259825140099e-01  8.6756456461468423e-01  8.0629186110223994e-01  7.3021838887128532e-01  6.4676594126838616e-01  5.6309741622006770e-01  4.850950452