<?xml version="1.0"?>
<VTKFile type="UnstructuredGrid"  version="0.1"  >
<UnstructuredGrid>
<Piece  NumberOfPoints="2601" NumberOfCells="5000">
<Points>
<DataArray  type="Float64"  NumberOfComponents="3"  format="ascii">0 0 0  0.03 0 0  0.06 0 0  0.09 0 0  0.12 0 0  0.15 0 0  0.18 0 0  0.21 0 0  0.24 0 0  0.27 0 0  0.3 0 0  0.33 0 0  0.36 0 0  0.39 0 0  0.42 0 0  0.45 0 0  0.48 0 0  0.51 0 0  0.54 0 0  0.57 0 0  0.6 0 0  0.63 0 0  0.66 0 0  0.6899999999999999 0 0  0.72 0 0  0.75 0 0  0.78 0 0  0.8100000000000001 0 0  0.84 0 0  0.87 0 0  0.9 0 0  0.93 0 0  0.96 0 0  0.99 0 0  1.02 0 0  1.05 0 0  1.08 0 0  1.11 0 0  1.14 0 0  1.17 0 0  1.2 0 0  1.23 0 0  1.26 0 0  1.29 0 0  1.32 0 0  1.35 0 0  1.38 0 0  1.41 0 0  1.44 0 0  1.47 0 0  1.5 0 0  0 0.02 0  0.03 0.02 0  0.06 0.02 0  0.09 0.02 0  0.12 0.02 0  0.15 0.02 0  0.18 0.02 0  0.21 0.02 0  0.24 0.02 0  0.27 0.02 0  0.3 0.02 0  0.33 0.02 0  0.36 0.02 0  0.39 0.02 0  0.42 0.02 0  0.45 0.02 0  0.48 0.02 0  0.51 0.02 0  0.54 0.02 0  0.57 0.02 0  0.6 0.02 0  0.63 0.02 0  0.66 0.02 0  0.6899999999999999 0.02 0  0.72 0.02 0  0.75 0.02 0  0.78 0.02 0  0.8100000000000001 0.02 0  0.84 0.02 0  0.87 0.02 0  0.9 0.02 0  0.93 0.02 0  0.96 0.02 0  0.99 0.02 0  1.02 0.02 0  1.05 0.02 0  1.08 0.02 0  1.11 0.02 0  1.14 0.02 0  1.17 0.02 0  1.2 0.02 0  1.23 0.02 0  1.26 0.02 0  1.29 0.02 0  1.32 0.02 0  1.35 0.02 0  1.38 0.02 0  1.41 0.02 0  1.44 0.02 0  1.47 0.02 0  1.5 0.02 0  0 0.04 0  0.03 0.04 0  0.06 0.04 0  0.09 0.04 0  0.12 0.04 0  0.15 0.04 0  0.18 0.04 0  0.21 0.04 0  0.24 0.04 0  0.27 0.04 0  0.3 0.04 0  0.33 0.04 0  0.36 0.04 0  0.39 0.04 0  0.42 0.04 0  0.45 0.04 0  0.48 0.04 0  0.51 0.04 0  0.54 0.04 0  0.57 0.04 0  0.6 0.04 0  0.63 0.04 0  0.66 0.04 0  0.6899999999999999 0.04 0  0.72 0.04 0  0.75 0.04 0  0.78 0.04 0  0.8100000000000001 0.04 0  0.84 0.04 0  0.87 0.04 0  0.9 0.04 0  0.93 0.04 0  0.96 0.04 0  0.99 0.04 0  1.02 0.04 0  1.05 0.04 0  1.08 0.04 0  1.11 0.04 0  1.14 0.04 0  1.17 0.04 0  1.2 0.04 0  1.23 0.04 0  1.26 0.04 0  1.29 0.04 0  1.32 0.04 0  1.35 0.04 0  1.38 0.04 0  1.41 0.04 0  1.44 0.04 0  1.47 0.04 0  1.5 0.04 0  0 0.06 0  0.03 0.06 0  0.06 0.06 0  0.09 0.06 0  0.12 0.06 0  0.15 0.06 0  0.18 0.06 0  0.21 0.06 0  0.24 0.06 0  0.27 0.06 0  0.3 0.06 0  0.33 0.06 0  0.36 0.06 0  0.39 0.06 0  0.42 0.06 0  0.45 0.06 0  0.48 0.06 0  0.51 0.06 0  0.54 0.06 0  0.57 0.06 0  0.6 0.06 0  0.63 0.06 0  0.66 0.06 0  0.6899999999999999 0.06 0  0.72 0.06 0  0.75 0.06 0  0.78 0.06 0  0.8100000000000001 0.06 0  0.84 0.06 0  0.87 0.06 0  0.9 0.06 0  0.93 0.06 0  0.96 0.06 0  0.99 0.06 0  1.02 0.06 0  1.05 0.06 0  1.08 0.06 0  1.11 0.06 0  1.14 0.06 0  1.17 0.06 0  1.2 0.06 0  1.23 0.06 0  1.26 0.06 0  1.29 0.06 0  1.32 0.06 0  1.35 0.06 0  1.38 0.06 0  1.41 0.06 0  1.44 0.06 0  1.47 0.06 0  1.5 0.06 0  0 0.08 0  0.03 0.08 0  0.06 0.08 0  0.09 0.08 0  0.12 0.08 0  0.15 0.08 0  0.18 0.08 0  0.21 0.08 0  0.24 0.08 0  0.27 0.08 0  0.3 0.08 0  0.33 0.08 0  0.36 0.08 0  0.39 0.08 0  0.42 0.08 0  0.45 0.08 0  0.48 0.08 0  0.51 0.08 0  0.54 0.08 0  0.57 0.08 0  0.6 0.08 0  0.63 0.08 0  0.66 0.08 0  0.6899999999999999 0.08 0  0.72 0.08 0  0.75 0.08 0  0.78 0.08 0  0.8100000000000001 0.08 0  0.84 0.08 0  0.87 0.08 0  0.9 0.08 0  0.93 0.08 0  0.96 0.08 0  0.99 0.08 0  1.02 0.08 0  1.05 0.08 0  1.08 0.08 0  1.11 0.08 0  1.14 0.08 0  1.17 0.08 0  1.2 0.08 0  1.23 0.08 0  1.26 0.08 0  1.29 0.08 0  1.32 0.08 0  1.35 0.08 0  1.38 0.08 0  1.41 0.08 0  1.44 0.08 0  1.47 0.08 0  1.5 0.08 0  0 0.1 0  0.03 0.1 0  0.06 0.1 0  0.09 0.1 0  0.12 0.1 0  0.15 0.1 0  0.18 0.1 0  0.21 0.1 0  0.24 0.1 0  0.27 0.1 0  0.3 0.1 0  0.33 0.1 0  0.36 0.1 0  0.39 0.1 0  0.42 0.1 0  0.45 0.1 0  0.48 0.1 0  0.51 0.1 0  0.54 0.1 0  0.57 0.1 0  0.6 0.1 0  0.63 0.1 0  0.66 0.1 0  0.6899999999999999 0.1 0  0.72 0.1 0  0.75 0.1 0  0.78 0.1 0  0.8100000000000001 0.1 0  0.84 0.1 0  0.87 0.1 0  0.9 0.1 0  0.93 0.1 0  0.96 0.1 0  0.99 0.1 0  1.02 0.1 0  1.05 0.1 0  1.08 0.1 0  1.11 0.1 0  1.14 0.1 0  1.17 0.1 0  1.2 0.1 0  1.23 0.1 0  1.26 0.1 0  1.29 0.1 0  1.32 0.1 0  1.35 0.1 0  1.38 0.1 0  1.41 0.1 0  1.44 0.1 0  1.47 0.1 0  1.5 0.1 0  0 0.12 0  0.03 0.12 0  0.06 0.12 0  0.09 0.12 0  0.12 0.12 0  0.15 0.12 0  0.18 0.12 0  0.21 0.12 0  0.24 0.12 0  0.27 0.12 0  0.3 0.12 0  0.33 0.12 0  0.36 0.12 0  0.39 0.12 0  0.42 0.12 0  0.45 0.12 0  0.48 0.12 0  0.51 0.12 0  0.54 0.12 0  0.57 0.12 0  0.6 0.12 0  0.63 0.12 0  0.66 0.12 0  0.6899999999999999 0.12 0  0.72 0.12 0  0.75 0.12 0  0.78 0.12 0  0.8100000000000001 0.12 0  0.84 0.12 0  0.87 0.12 0  0.9 0.12 0  0.93 0.12 0  0.96 0.12 0  0.99 0.12 0  1.02 0.12 0  1.05 0.12 0  1.08 0.12 0  1.11 0.12 0  1.14 0.12 0  1.17 0.12 0  1.2 0.12 0  1.23 0.12 0  1.26 0.12 0  1.29 0.12 0  1.32 0.12 0  1.35 0.12 0  1.38 0.12 0  1.41 0.12 0  1.44 0.12 0  1.47 0.12 0  1.5 0.12 0  0 0.14 0  0.03 0.14 0  0.06 0.14 0  0.09 0.14 0  0.12 0.14 0  0.15 0.14 0  0.18 0.14 0  0.21 0.14 0  0.24 0.14 0  0.27 0.14 0  0.3 0.14 0  0.33 0.14 0  0.36 0.14 0  0.39 0.14 0  0.42 0.14 0  0.45 0.14 0  0.48 0.14 0  0.51 0.14 0  0.54 0.14 0  0.57 0.14 0  0.6 0.14 0  0.63 0.14 0  0.66 0.14 0  0.6899999999999999 0.14 0  0.72 0.14 0  0.75 0.14 0  0.78 0.14 0  0.8100000000000001 0.14 0  0.84 0.14 0  0.87 0.14 0  0.9 0.14 0  0.93 0.14 0  0.96 0.14 0  0.99 0.14 0  1.02 0.14 0  1.05 0.14 0  1.08 0.14 0  1.11 0.14 0  1.14 0.14 0  1.17 0.14 0  1.2 0.14 0  1.23 0.14 0  1.26 0.14 0  1.29 0.14 0  1.32 0.14 0  1.35 0.14 0  1.38 0.14 0  1.41 0.14 0  1.44 0.14 0  1.47 0.14 0  1.5 0.14 0  0 0.16 0  0.03 0.16 0  0.06 0.16 0  0.09 0.16 0  0.12 0.16 0  0.15 0.16 0  0.18 0.16 0  0.21 0.16 0  0.24 0.16 0  0.27 0.16 0  0.3 0.16 0  0.33 0.16 0  0.36 0.16 0  0.39 0.16 0  0.42 0.16 0  0.45 0.16 0  0.48 0.16 0  0.51 0.16 0  0.54 0.16 0  0.57 0.16 0  0.6 0.16 0  0.63 0.16 0  0.66 0.16 0  0.6899999999999999 0.16 0  0.72 0.16 0  0.75 0.16 0  0.78 0.16 0  0.8100000000000001 0.16 0  0.84 0.16 0  0.87 0.16 0  0.9 0.16 0  0.93 0.16 0  0.96 0.16 0  0.99 0.16 0  1.02 0.16 0  1.05 0.16 0  1.08 0.16 0  1.11 0.16 0  1.14 0.16 0  1.17 0.16 0  1.2 0.16 0  1.23 0.16 0  1.26 0.16 0  1.29 0.16 0  1.32 0.16 0  1.35 0.16 0  1.38 0.16 0  1.41 0.16 0  1.44 0.16 0  1.47 0.16 0  1.5 0.16 0  0 0.18 0  0.03 0.18 0  0.06 0.18 0  0.09 0.18 0  0.12 0.18 0  0.15 0.18 0  0.18 0.18 0  0.21 0.18 0  0.24 0.18 0  0.27 0.18 0  0.3 0.18 0  0.33 0.18 0  0.36 0.18 0  0.39 0.18 0  0.42 0.18 0  0.45 0.18 0  0.48 0.18 0  0.51 0.18 0  0.54 0.18 0  0.57 0.18 0  0.6 0.18 0  0.63 0.18 0  0.66 0.18 0  0.6899999999999999 0.18 0  0.72 0.18 0  0.75 0.18 0  0.78 0.18 0  0.8100000000000001 0.18 0  0.84 0.18 0  0.87 0.18 0  0.9 0.18 0  0.93 0.18 0  0.96 0.18 0  0.99 0.18 0  1.02 0.18 0  1.05 0.18 0  1.08 0.18 0  1.11 0.18 0  1.14 0.18 0  1.17 0.18 0  1.2 0.18 0  1.23 0.18 0  1.26 0.18 0  1.29 0.18 0  1.32 0.18 0  1.35 0.18 0  1.38 0.18 0  1.41 0.18 0  1.44 0.18 0  1.47 0.18 0  1.5 0.18 0  0 0.2 0  0.03 0.2 0  0.06 0.2 0  0.09 0.2 0  0.12 0.2 0  0.15 0.2 0  0.18 0.2 0  0.21 0.2 0  0.24 0.2 0  0.27 0.2 0  0.3 0.2 0  0.33 0.2 0  0.36 0.2 0  0.39 0.2 0  0.42 0.2 0  0.45 0.2 0  0.48 0.2 0  0.51 0.2 0  0.54 0.2 0  0.57 0.2 0  0.6 0.2 0  0.63 0.2 0  0.66 0.2 0  0.6899999999999999 0.2 0  0.72 0.2 0  0.75 0.2 0  0.78 0.2 0  0.8100000000000001 0.2 0  0.84 0.2 0  0.87 0.2 0  0.9 0.2 0  0.93 0.2 0  0.96 0.2 0  0.99 0.2 0  1.02 0.2 0  1.05 0.2 0  1.08 0.2 0  1.11 0.2 0  1.14 0.2 0  1.17 0.2 0  1.2 0.2 0  1.23 0.2 0  1.26 0.2 0  1.29 0.2 0  1.32 0.2 0  1.35 0.2 0  1.38 0.2 0  1.41 0.2 0  1.44 0.2 0  1.47 0.2 0  1.5 0.2 0  0 0.22 0  0.03 0.22 0  0.06 0.22 0  0.09 0.22 0  0.12 0.22 0  0.15 0.22 0  0.18 0.22 0  0.21 0.22 0  0.24 0.22 0  0.27 0.22 0  0.3 0.22 0  0.33 0.22 0  0.36 0.22 0  0.39 0.22 0  0.42 0.22 0  0.45 0.22 0  0.48 0.22 0  0.51 0.22 0  0.54 0.22 0  0.57 0.22 0  0.6 0.22 0  0.63 0.22 0  0.66 0.22 0  0.6899999999999999 0.22 0  0.72 0.22 0  0.75 0.22 0  0.78 0.22 0  0.8100000000000001 0.22 0  0.84 0.22 0  0.87 0.22 0  0.9 0.22 0  0.93 0.22 0  0.96 0.22 0  0.99 0.22 0  1.02 0.22 0  1.05 0.22 0  1.08 0.22 0  1.11 0.22 0  1.14 0.22 0  1.17 0.22 0  1.2 0.22 0  1.23 0.22 0  1.26 0.22 0  1.29 0.22 0  1.32 0.22 0  1.35 0.22 0  1.38 0.22 0  1.41 0.22 0  1.44 0.22 0  1.47 0.22 0  1.5 0.22 0  0 0.24 0  0.03 0.24 0  0.06 0.24 0  0.09 0.24 0  0.12 0.24 0  0.15 0.24 0  0.18 0.24 0  0.21 0.24 0  0.24 0.24 0  0.27 0.24 0  0.3 0.24 0  0.33 0.24 0  0.36 0.24 0  0.39 0.24 0  0.42 0.24 0  0.45 0.24 0  0.48 0.24 0  0.51 0.24 0  0.54 0.24 0  0.57 0.24 0  0.6 0.24 0  0.63 0.24 0  0.66 0.24 0  0.6899999999999999 0.24 0  0.72 0.24 0  0.75 0.24 0  0.78 0.24 0  0.8100000000000001 0.24 0  0.84 0.24 0  0.87 0.24 0  0.9 0.24 0  0.93 0.24 0  0.96 0.24 0  0.99 0.24 0  1.02 0.24 0  1.05 0.24 0  1.08 0.24 0  1.11 0.24 0  1.14 0.24 0  1.17 0.24 0  1.2 0.24 0  1.23 0.24 0  1.26 0.24 0  1.29 0.24 0  1.32 0.24 0  1.35 0.24 0  1.38 0.24 0  1.41 0.24 0  1.44 0.24 0  1.47 0.24 0  1.5 0.24 0  0 0.26 0  0.03 0.26 0  0.06 0.26 0  0.09 0.26 0  0.12 0.26 0  0.15 0.26 0  0.18 0.26 0  0.21 0.26 0  0.24 0.26 0  0.27 0.26 0  0.3 0.26 0  0.33 0.26 0  0.36 0.26 0  0.39 0.26 0  0.42 0.26 0  0.45 0.26 0  0.48 0.26 0  0.51 0.26 0  0.54 0.26 0  0.57 0.26 0  0.6 0.26 0  0.63 0.26 0  0.66 0.26 0  0.6899999999999999 0.26 0  0.72 0.26 0  0.75 0.26 0  0.78 0.26 0  0.8100000000000001 0.26 0  0.84 0.26 0  0.87 0.26 0  0.9 0.26 0  0.93 0.26 0  0.96 0.26 0  0.99 0.26 0  1.02 0.26 0  1.05 0.26 0  1.08 0.26 0  1.11 0.26 0  1.14 0.26 0  1.17 0.26 0  1.2 0.26 0  1.23 0.26 0  1.26 0.26 0  1.29 0.26 0  1.32 0.26 0  1.35 0.26 0  1.38 0.26 0  1.41 0.26 0  1.44 0.26 0  1.47 0.26 0  1.5 0.26 0  0 0.28 0  0.03 0.28 0  0.06 0.28 0  0.09 0.28 0  0.12 0.28 0  0.15 0.28 0  0.18 0.28 0  0.21 0.28 0  0.24 0.28 0  0.27 0.28 0  0.3 0.28 0  0.33 0.28 0  0.36 0.28 0  0.39 0.28 0  0.42 0.28 0  0.45 0.28 0  0.48 0.28 0  0.51 0.28 0  0.54 0.28 0  0.57 0.28 0  0.6 0.28 0  0.63 0.28 0  0.66 0.28 0  0.6899999999999999 0.28 0  0.72 0.28 0  0.75 0.28 0  0.78 0.28 0  0.8100000000000001 0.28 0  0.84 0.28 0  0.87 0.28 0  0.9 0.28 0  0.93 0.28 0  0.96 0.28 0  0.99 0.28 0  1.02 0.28
[...]
<PointData  Scalars="ControlVisualisation"> 
<DataArray  type="Float64"  Name="ControlVisualisation"  format="ascii">1.9137635564886286e-05  1.2768579549177370e-05  1.2816256397749559e-05  1.2914241977380067e-05  1.3065156397843204e-05  1.3252921044563114e-05  1.3451613603528104e-05  1.3636632269016578e-05  1.3791298618336282e-05  1.3908139153832801e-05  1.3986632582503408e-05  1.4030369747515254e-05  1.4045084957561382e-05  1.4037379347502598e-05  1.4013783089458531e-05  1.3980127691279811e-05  1.3941248094783476e-05  1.3900929511460725e-05  1.3861983089395658e-05  1.3826378610966569e-05  1.3795405176736537e-05  1.3769843282790719e-05  1.3750128110564251e-05  1.3736483770304268e-05  1.3729017421096255e-05  1.3727774636390148e-05  1.3732765061569860e-05  1.3743966773586295e-05  1.3761310748587145e-05  1.3784638752192958e-05  1.3813624566023934e-05  1.3847653350647775e-05  1.3885665609318906e-05  1.3925982957051466e-05  1.3966136708738371e-05  1.4002719499044998e-05  1.4031292364497217e-05  1.4046407557436532e-05  1.4041828901678470e-05  1.4011010334473281e-05  1.3947768979825450e-05  1.3847307936622095e-05  1.3708048159087490e-05  1.3534330256530395e-05  1.3339113524934418e-05  1.3143766408616046e-05  1.2974056133292135e-05  1.2852156862046637e-05  1.2784566391275001e-05  1.2758022065534033e-05  3.8280177692825995e-05  1.2761185549372735e-05  6.3871618591020101e-06  6.4333052520857069e-06  6.5358963001296004e-06  6.7047282630488595e-06  6.9292005555084773e-06  7.1831938492748488e-06  7.4354017238083231e-06  7.6589325509194866e-06  7.8368908270399632e-06  7.9626290953168598e-06  8.0372477128534045e-06  8.0669841453842408e-06  8.0609565506317931e-06  8.0291418914743024e-06  7.9808473185560862e-06  7.9238848161225331e-06  7.8643310136932736e-06  7.8066177602811057e-06  7.7537671661825329e-06  7.7076822832324065e-06  7.6694499266563708e-06  7.6396202503936917e-06  7.6184326180587995e-06  7.6059726408697203e-06  7.6022646432527493e-06  7.6073159960655061e-06  7.6211293900282467e-06  7.6436884355150001e-06  7.6749079756320058e-06  7.7145314974001204e-06  7.7619605707562974e-06  7.8160157353772136e-06  7.8746474163874896e-06  7.9346273813877136e-06  7.9912548177737442e-06  8.0381400296506945e-06  8.0671875157012113e-06  8.0689977052067775e-06  8.0338039526944535e-06  7.9528754920591756e-06  7.8202977241258311e-06  7.6356096008161987e-06  7.4067368754209311e-06  7.1524509385190798e-06  6.9006025939184387e-06  6.6813797285459494e-06  6.5197455402304608e-06  6.4250796219497367e-06  6.3844680072931913e-06  1.2756504278646387e-05  1.2775528589944365e-05  6.4017110034555879e-06  6.4615396163373838e-06  6.5921385630154789e-06  6.8026650883765117e-06  7.0784229264985587e-06  7.3889418456498866e-06  7.6969601884602364e-06  7.9697482051533218e-06  8.1867565808384700e-06  8.3394379177781958e-06  8.4282819318914912e-06  8.4604933323518072e-06  8.4475535847553039e-06  8.4023768736717900e-06  8.3370201767068188e-06  8.2615133219487776e-06  8.1835716122219496e-06  8.1087444505167579e-06  8.0407330358280090e-06  7.9817789879982610e-06  7.9330774171097459e-06  7.8951621144084874e-06  7.8682121880407330e-06  7.8522559953059236e-06  7.8472822507897176e-06  7.8532882365247114e-06  7.8702932671518477e-06  7.8983270636513995e-06  7.9373787361113801e-06  7.9872757377949778e-06  8.0474647399371900e-06  8.1166900754939873e-06  8.1926019931767741e-06  8.2713386800892066e-06  8.3471209664747367e-06  8.4119325498228799e-06  8.4554365494748186e-06  8.4655255731892001e-06  8.4295862598367008e-06  8.3367812918789199e-06  8.1798579924769561e-06  7.9582160001209257e-06  7.6807656151804922e-06  7.3700525326004787e-06  7.0607843386640916e-06  6.7875508034514961e-06  6.5795032640513449e-06  6.4533830875181632e-06  6.3983890790070841e-06  1.2766848160394990e-05  1.2789525973356826e-05  6.4226542411980988e-06  6.5062714401471021e-06  6.6698566730360931e-06  6.9097256738378057e-06  7.2047520270716892e-06  7.5254081989737239e-06  7.8329335068036744e-06  8.0961754239335396e-06  8.2998377274075235e-06  8.4386274836658685e-06  8.5136046901145392e-06  8.5321444468055577e-06  8.5063598628362526e-06  8.4497870805711896e-06  8.3747287516834881e-06  8.2911835181519832e-06  8.2067527864711565e-06  8.1268584521886712e-06  8.0550412291108897e-06  7.9933329804379101e-06  7.9426946759075175e-06  7.9034492736749039e-06  7.8756239341807003e-06  7.8591599857826534e-06  7.8540075558593650e-06  7.8601538707818312e-06  7.8776298424597113e-06  7.9065100182523558e-06  7.9468834715549395e-06  7.9987466209684046e-06  8.0617720218560654e-06  8.1349466318843897e-06  8.2161386880315797e-06  8.3016608041174803e-06  8.3858840506752996e-06  8.4608797796469140e-06  8.5161940537176845e-06  8.5393001324850701e-06  8.5171004279168438e-06  8.4393724698080669e-06  8.2979635537637317e-06  8.0900403677107344e-06  7.8209296337356763e-06  7.5080368495380354e-06  7.1882844123225688e-06  6.8947189246250704e-06  6.6532077343535096e-06  6.4911948414353402e-06  6.4150320732309242e-06  1.2781410447123707e-05  1.2787008400572502e-05  6.4485880042003517e-06  6.5962508775812250e-06  6.8312257194114672e-06  7.1090919604047851e-06  7.4159979725264510e-06  7.7387757584541459e-06  8.0298477673178152e-06  8.2645502694540066e-06  8.4395747641264298e-06  8.5529612442144329e-06  8.6044887162803210e-06  8.6010694759606879e-06  8.5558111406249253e-06  8.4830212584988742e-06  8.3949471403749673e-06  8.3011520981741338e-06  8.2088347580010615e-06  8.1231097456775623e-06  8.0472099046234604e-06  7.9827980323177463e-06  7.9304394763440952e-06  7.8901165088267857e-06  7.8616269943804632e-06  7.8447949514504003e-06  7.8395269752388169e-06  7.8457999698801881e-06  7.8636536426205786e-06  7.8932123720005231e-06  7.9347003553637932e-06  7.9883678251766251e-06  8.0542474254748715e-06  8.1317253290880282e-06  8.2190295717752268e-06  8.3128042929154895e-06  8.4078026474450135e-06  8.4964050494032754e-06  8.5683205329538677e-06  8.6106520192229748e-06  8.6102974932698398e-06  8.5570679876270685e-06  8.4431219770148350e-06  8.2643763156012229e-06  8.0264892316646597e-06  7.7240857105587194e-06  7.4028733997448194e-06  7.1026398472696434e-06  6.8158529225966012e-06  6.5721922878098118e-06  6.4290949795797005e-06  1.2786853422169750e-05  1.2790365297505764e-05  6.5186655184371601e-06  6.9624762760986876e-06  7.5786136574607229e-06  7.8722123839941553e-06  7.9971758508992040e-06  8.1616310283051523e-06  8.3413066141678020e-06  8.5018611938030059e-06  8.6282297573023468e-06  8.7061380039250306e-06  8.7252587531842118e-06  8.6909540334486309e-06  8.6186929341205253e-06  8.5240743715211791e-06  8.4188384178484209e-06  8.3116275035419517e-06  8.2090265946891403e-06  8.1157821754483029e-06  8.0347460776502669e-06  7.9670590511018364e-06  7.9126975098366168e-06  7.8711450662860910e-06  7.8418888276055223e-06  7.8246198318328003e-06  7.8192131787221716e-06  7.8256412752720898e-06  7.8439405390167740e-06  7.8742722454224316e-06  7.9170197468738890e-06  7.9727830461235337e-06  8.0421238123676852e-06  8.1250187090582752e-06  8.2201782307096041e-06  8.3246973280801722e-06  8.4337651065525025e-06  8.5403755266477244e-06  8.6352246609139596e-06  8.7041987776908220e-06  8.7333516458600975e-06  8.7087599571513011e-06  8.6496640978998709e-06  8.5355795798996970e-06  8.4145931866505962e-06  8.2617587974015391e-06  8.1448618149509566e-06  7.9798454038403158e-06  7.3992051002156102e-06  6.7791607751036598e-06  6.4510896538031647e-06  1.2775902454415134e-05  1.3254921298506555e-05  7.0524722176023126e-06  9.6597829460933041e-06  1.6980301238677212e-05  2.2080088362245017e-05  1.5512369974558094e-05  1.1127898990802001e-05  9.3609245658371664e-06  8.9058494151842065e-06  8.8852617413625338e-06  8.9061855001307004e-06  8.8811134786316820e-06  8.8041576570958261e-06  8.6958427962923403e-06  8.5735248331393767e-06  8.4470057563557114e-06  8.3231646807436407e-06  8.2077873490402486e-06  8.1053035609587061e-06  8.0181670453585435e-06  7.9468000495232634e-06  7.8903109329799510e-06  7.8474707288931356e-06  7.8173727273813958e-06  7.7995919407818502e-06  7.7940173434068216e-06  7.8006344627581726e-06  7.8194470661331547e-06  7.8506038267011298e-06  7.8946422413753813e-06  7.9526208312781247e-06  8.0258652654488311e-06  8.1152286897049542e-06  8.2200151787719552e-06  8.3377773907338020e-06  8.4641328813263721e-06  8.5940048459191569e-06  8.7188690716634333e-06  8.8216650192260214e-06  8.8920392781972030e-06  8.9143336560776387e-06  8.9916992444581619e-06  9.1325440912611726e-06  9.8279105045386667e-06  1.1333479480968316e-05  1.4776429257079681e-05  2.1742641501190916e-05  1.7886915660243582e-05  1.0250707498630824e-05  6.9283936142905123e-06  1.2829530178594840e-05  1.4412102957536607e-05  1.5752550578487069e-05  2.9534502659022140e-02  5.7092614934619153e-02  5.3067901416965407e-02  3.3313316155896541e-02  1.0379654202217902e-02  3.0888253690117903e-05  1.1741284365102408e-05  9.5159490834504183e-06  9.1964454997093373e-06  9.0833505811857885e-06  8.9419269242197506e-06  8.7860604477400449e-06  8.6304195412744989e-06  8.4787955935998785e-06  8.3350881522339025e-06  8.2043004695882579e-06  8.0908245602029862e-06  7.9968129171281700e-06  7.9216772374748376e-06  7.8632159017206340e-06  7.8191824120722678e-06  7.7882035172659152e-06  7.7698204913225159e-06  7.7640395866879508e-06  7.7708972489248793e-06  7.7903068492001373e-06  7.8222877510390260e-06  7.8674696470388231e-06  7.9274901359657160e-06  8.0047688126122769e-06  8.1015047570652051e-06  8.2177247518137909e-06  8.3512091104204638e-06  8.4984556104267586e-06  8.6566549889391455e-06  8.8164527023782290e-06  8.9751412625413182e-06  9.1201331934703682e-06  9.2737045839058721e-06  1.0089318247054245e-05  1.2220822575874553e-05  2.4246604432807751e-05  7.5435330903008448e-03  2.8972100529005625e-02  5.0051125091466510e-02  5.7522960967672010e-02  4.1204523769901358e-02  1.6265791885208642e-05  1.4355945842831559e-05  3.1700717815144033e-05  8.9843483833261600e-02  2.0994230989443546e-01  2.1428705150627350e-01  1.8040900803703588e-01  1.3256863181587131e-01  8.2075885735463774e-02  3.7713581910886598e-02  5.7159736286992802e-03  1.6385412467248046e-05  1.0310765149100037e-05  9.4080737471646678e-06  9.1106469305232972e-06  8.8870531363255531e-06  8.6938898281365907e-06  8.5136864588437593e-06  8.3467348171117902e-06  8.1975408935706163e-06  8.0711466545785190e-06  7.9697556549019814e-06  7.8912531921050259e-06  7.8313795740303779e-06  7.7864256226780910e-06  7.7545213945301447e-06  7.7353833178461427e-06  7.7293315180884515e-06  7.7365235225269857e-06  7.7566834755866415e-06  7.7894657264125534e-06  7.8354248278243697e-06  7.8968761622779126e-06  7.9778191338004012e-06  8.0826838758250251e-06  8.2126402531487417e-06  8.3641784877898742e-06  8.5361783021427030e-06  8.7239950801753915e-06  8.9394637900510183e-06  9.2096472952057520e-06  9.6077370382410955e-06  1.0801816287483407e-05  1.6335162129545410e-05  2.2095901366020413e-03  3.0898171551112658e-02  7.5964566630556285e-02  1.2827327335125674e-01  1.7549212629751751e-01  2.0849756985354670e-01  2.0803056214413990e-01  1.1421147747133921e-01  2.3319568075528768e-05  4.0110143371162249e-01  4.6415482363402943e-01  4.9579960276595114e-01  4.2305413362571603e-01  3.5492146083562343e-01  2.7487670371945067e-01  1.9378295918079450e-01  1.1959160449938043e-01  5.9920201546473074e-02  1.7074044526361930e-02  2.9207282316925839e-05  1.1330146348704534e-05  9.4245235484726397e-06  9.0108411015766864e-06  8.7665357905788236e-06  8.5520051580931456e-06  8.3578796973095207e-06  8.1864162554438193e-06  8.0446296346792024e-06  7.9357821223176768e-06  7.8551005632394088e-06  7.7949565106704333e-06  7.7495368025137318e-06  7.7165578852368122e-06  7.6963596306158523e-06  7.6899157230110100e-06  7.6976202156089421e-06  7.7188656840224738e-06  7.7524933405262182e-06  7.7986147318161581e-06  7.8602491802925896e-06  7.9437986180288041e-06  8.0571818488453346e-06  8.2044731102319261e-06  8.3753560102624572e-06  8.5804510373484300e-06  8.8044529090844436e-06  9.1422556372663110e-06  9.8889918974325105e-06  1.1820587866429993e-05  2.3726978458893460e-05  1.1593817657221764e-02  5.3532325650223624e-02  1.1618865542851432e-01  1.8979391126426803e-01  2.7060930570031272e-01  3.5078642697423928e-01  4.1783211228967554e-01  4.4811145742903552e-01  4.6917576796400101e-01  3.5713655776082198e-01  9.9992161723345807e-01  9.9076997549744339e-01  7.8642457686786993e-01  6.6341510306301710e-01  5.5674050458004232e-01  4.4316398857059647e-01  3.3546487211046416e-01  2.3493510228393144e-01  1.4681809337089474e-01  7.6641281100715830e-02  2.7294184137421705e-02  1.9011214787327868e-04  1.2618887410603451e-05  9.4666541299255329e-06  8.8943732987106380e-06  8.6009116061414385e-06  8.3713191270641689e-06  8.1705834253916668e-06  8.0091625331361849e-06  7.8935568140056602e-06  7.8130826882473553e-06  7.7545889638302703e-06  7.7092794084760265e-06  7.6747533955698645e-06  7.6528933271673247e-06  7.6458629662573596e-06  7.6543815634707048e-06  7.6774283651549772e-06  7.7121943165121523e-06  7.7576281678161224e-06  7.8174267009031097e-06  7.9015584784450296e-06  8.0226049729478196e-06  8.1969348755783463e-06  8.3928117589498526e-06  8.6543770952093731e-06  8.9946098651359572e-06  1.0121172949173454e-05  1.3249858371096991e-05  5.0311897866554279e-05  2.1719589917969837e-02  7.1446878734655758e-02  1.4390010364317463e-01  2.3110067039786819e-01  3.3165071968207738e-01  4.4147070595365950e-01  5.4401278027847677e-01  6.5578312834630148e-01  8.0492814707094162e-01  9.9932372021244320e-01  9.9976791987024249e-01  9.9998426081754388e-01  9.9998625053564716e-01  9.9995100949859561e-01  9.0651172377662004e-01  7.4440571370559316e-01  6.1525611961581261e-01  4.8866720796918928e-01  3.6899549177674335e-01  2.5993821785861798e-01  1.6593243591594389e-01  9.1095183364992505e-02  3.8454591807383455e-02  5.4642214544574561e-03  1.6199526032993025e-05  9.9760130727451271e-06  8.8064990662505075e-06  8.4321176272020815e-06  8.1645709529603594e-06  7.9689235595253490e-06  7.8463355810026198e-06  7.7685314285996031e-06  7.7138698851497866e-06  7.6688496212332107e-06  7.6313646394704163e-06  7.6066930946682295e-06  7.5987759939924461e-06  7.6084945885986773e-06  7.6350897520746457e-06  7.6723703422620184e-06  7.7169610719210517e-06  7.7735059800076346e-06  7.8570290630786576e-06  7.9876779161343730e-06  8.2193008349800998e-06  8.4925022154209928e-06  9.0917345326672257e-06  1.0529548571984881e-05  1.6028694244096747e-05  2.1332667202797087e-03  3.2496155103701359e-02  8.7329028858495222e-02  1.6321042315534331e-01  2.5699908266767141e-01  3.6639727229876534e-01  4.8808819076475185e-01  6.0966289783949656e-01  7.4105767344451701e-01  9.3994357284917163e-01  9.9996766216717092e-01  9.9998775141151597e-01  9.9997841481597094e-01  9.9998959797980291e-01  9.9999307972007445e-01  9.9998613660328017e-01  9.9994663692309782e-01  9.1116252368912454e-01  7.6764623025244949e-01  6.3628016290648159e-01  5.0820467726352958e-01  3.8674639949458001e-01  2.7654132218863009e-01  1.8220060792850790e-01  1.0659936424166114e-01  5.2059426150286317e-02  1.6042885007724588e-02  4.1009799050531748e-05  1.2730805010844318e-05  9.5028341552387280e-06  8.4947624915443863e-06  8.0861815528783949e-06  7.8928001749025425e-06  7.7865126097809180e-06  7.7200140088198802e-06  7.6658062817408156e-06  7.6185795371631250e-06  7.5880062267791064e-06  7.5787203244572686e-06  7.5909024314392828e-06  7.6265121794474858e-06  7.6748811345994608e-06  7.7320251451752197e-06  7.8095771238400262e-06  7.9388296567907520e-06  8.1783023158898294e-06  8.8055582182248278e-06  9.9380596969731325e-06  1.2588267246743541e-05  3.1541735397122364e-05  1.1767929361345415e-02  4.7325829108611342e-02  1.0432990814117452e-01  1.7948059294379021e-01  2.7420662978059013e-01  3.8516021458485955e-01  5.0812988051351426e-01  6.3614614783455292e-01  7.6461564850778185e-01  9.3916209237197090e-01  9.9995842426354109e-01  9.9998654409780685e-01  9.9999306837765845e-01  9.9998877575503886e-01  9.9998898969384531e-01  9.9999360212170141e-01  9.9998940179744067e-01  9.9997585040342285e-01  9.9984304988340755e-01  8.8361399129694451e-01  7.6320218030344011e-01  6.3855307784817839e-01  5.1534566874770105e-01  3.9797397153539060e-01  2.9173999999241140e-01  2.0091607842087789e-01  1.2769279811679565e-01  7.3218138858485216e-02  3.5950658124154204e-02  1.1371955348795657e-02  6.1317639389905858e-05  1.6566131758681118e-05  1.1666080867070786e-05  1.0117503064693164e-05  9.3766786876942500e-06  8.9679954890094059e-06  8.7021180538969861e-06  8.5283415120414995e-06  8.4446738718047800e-06  8.4261031086968349e-06  8.4645599257027058e-06  8.5810106507667537e-06  8.7558355318535758e-06  9.0041922725060700e-06  9.4096179047646770e-06  1.0140452388379432e-05  1.1612021448639460e-05  1.5965135358027677e-05  4.8662255782308300e-05  8.5520553034710931e-03  3.0908809685642118e-02  7.0065567860604680e-02  1.2604946334810058e-01  1.9876229887351640e-01  2.8991283308042931e-01  3.9730380009409244e-01  5.1559945636758475e-01  6.4049006863572433e-01  7.6246118818352993e-01  8.9714155816923069e-01  9.9988880661274238e-01  9.9997569537756203e-01  9.9998902513440691e-01  9.9999344094346432e-01  9.9998965130013540e-01  9.9997991935516706e-01  9.9999041328330174e-01  9.9998605688738851e-01  9.9997492197992399e-01  9.9992565506233488e-01  9.6144782168176823e-01  8.5596433257562465e-01  7.4858525244400509e-01  6.3444510839934820e-01  5.1976254704525937e-01  4.1067932318148315e-01  3.1241136242148704e-01  2.2866926227469384e-01  1.6108651344407737e-01  1.0935487895686835e-01  7.2206462148795447e-02  4.6722471744376284e-02  2.8386978758834322e-02  1.6422494162545691e-02  9.3288770003471001e-03  4.7580572304257267e-03  1.9379395510121622e-03  3.6712633307148620e-04  1.1729374549991191e-04  7.9788088734707274e-05  7.2353544655438362e-05  7.8288410756613083e-05  1.1077478865530112e-04  3.0867539987120831e-04  1.6787183253222163e-03  4.4583975350998544e-03  8.4709026554877689e-03  1.5287388601640705e-02  2.5311285615400921e-02  4.3052992887744980e-02  7.0263172515568822e-02  1.0823199062584973e-01  1.5978434799777008e-01  2.2714367810582534e-01  3.1146635788602195e-01  4.1065698145805185e-01  5.2065536659075262e-01  6.3629585286283463e-01  7.5171274113819830e-01  8.5934537050071425e-01  9.7077435010480517e-01  9.9992264882889881e-01  9.9997231295120959e-01  9.9998485446891316e-01  9.9998978963107288e-01  9.9998487678397530e-01  9.9978575120635338e-01  9.9995687377650055e-01  9.9995443663079386e-01  9.9993728787616687e-01  9.9986290984116200e-01  9.8208497363086866e-01  9.0859745513648205e-01  8.2988330182905901e-01  7.3435545320346673e-01  6.3211183797926629e-01  5.2942045447151820e-01  4.3257373923972237e-01  3.4637403090820340e-01  2.7366934155267369e-01  2.1530394717634238e-01  1.7034618438125287e-01  1.3672274317236771e-01  1.1238436917841287e-01  9.5591467877294015e-02  8.3988184457016557e-02  7.5655705956212238e-02  7.0012266435444129e-02  6.6237670056653139e-02  6.3736566001211067e-02  6.2257229640936870e-02  6.1762381369239852e-02  6.2077394063828020e-02  6.3291214625967332e-02  6.5695489848624583e-02  6.9492306756802499e-02  7.5074599932518166e-02  8.3243679559796196e-02  9.5141779467118118e-02  1.1229704096966359e-01  1.3661133057173416e-01  1.6981325878781048e-01  2.1435141713178715e-01  2.7302717725632453e-01  3.4637856892114433e-01  4.3325904380851216e-01  5.3079642183691289e-01  6.3436518079987003e-01  7.3770109386174121e-01  8.3378372167300596e-01  9.1656880434742471e-01  9.8206133370556459e-01  9.9982877597173581e-01  9.9992870677091961e-01  9.9995438284914917e-01  9.9996272617630511e-01  9.9993976758136005e-01  3.3925678155030431e-01  6.4693192670813426e-01  8.0602148527499218e-01  9.0163866726129438e-01  9.4198264651098684e-01  9.4477389879325846e-01  9.2246353611288379e-01  8.7659925561870744e-01  8.0798649741751472e-01  7.2660515294965511e-01  6.3896376168453051e-01  5.5229521120677616e-01  4.722586869