<?xml version="1.0"?>
<VTKFile type="UnstructuredGrid"  version="0.1"  >
<UnstructuredGrid>
<Piece  NumberOfPoints="2601" NumberOfCells="5000">
<Points>
<DataArray  type="Float64"  NumberOfComponents="3"  format="ascii">0 0 0  0.03 0 0  0.06 0 0  0.09 0 0  0.12 0 0  0.15 0 0  0.18 0 0  0.21 0 0  0.24 0 0  0.27 0 0  0.3 0 0  0.33 0 0  0.36 0 0  0.39 0 0  0.42 0 0  0.45 0 0  0.48 0 0  0.51 0 0  0.54 0 0  0.57 0 0  0.6 0 0  0.63 0 0  0.66 0 0  0.6899999999999999 0 0  0.72 0 0  0.75 0 0  0.78 0 0  0.8100000000000001 0 0  0.84 0 0  0.87 0 0  0.9 0 0  0.93 0 0  0.96 0 0  0.99 0 0  1.02 0 0  1.05 0 0  1.08 0 0  1.11 0 0  1.14 0 0  1.17 0 0  1.2 0 0  1.23 0 0  1.26 0 0  1.29 0 0  1.32 0 0  1.35 0 0  1.38 0 0  1.41 0 0  1.44 0 0  1.47 0 0  1.5 0 0  0 0.02 0  0.03 0.02 0  0.06 0.02 0  0.09 0.02 0  0.12 0.02 0  0.15 0.02 0  0.18 0.02 0  0.21 0.02 0  0.24 0.02 0  0.27 0.02 0  0.3 0.02 0  0.33 0.02 0  0.36 0.02 0  0.39 0.02 0  0.42 0.02 0  0.45 0.02 0  0.48 0.02 0  0.51 0.02 0  0.54 0.02 0  0.57 0.02 0  0.6 0.02 0  0.63 0.02 0  0.66 0.02 0  0.6899999999999999 0.02 0  0.72 0.02 0  0.75 0.02 0  0.78 0.02 0  0.8100000000000001 0.02 0  0.84 0.02 0  0.87 0.02 0  0.9 0.02 0  0.93 0.02 0  0.96 0.02 0  0.99 0.02 0  1.02 0.02 0  1.05 0.02 0  1.08 0.02 0  1.11 0.02 0  1.14 0.02 0  1.17 0.02 0  1.2 0.02 0  1.23 0.02 0  1.26 0.02 0  1.29 0.02 0  1.32 0.02 0  1.35 0.02 0  1.38 0.02 0  1.41 0.02 0  1.44 0.02 0  1.47 0.02 0  1.5 0.02 0  0 0.04 0  0.03 0.04 0  0.06 0.04 0  0.09 0.04 0  0.12 0.04 0  0.15 0.04 0  0.18 0.04 0  0.21 0.04 0  0.24 0.04 0  0.27 0.04 0  0.3 0.04 0  0.33 0.04 0  0.36 0.04 0  0.39 0.04 0  0.42 0.04 0  0.45 0.04 0  0.48 0.04 0  0.51 0.04 0  0.54 0.04 0  0.57 0.04 0  0.6 0.04 0  0.63 0.04 0  0.66 0.04 0  0.6899999999999999 0.04 0  0.72 0.04 0  0.75 0.04 0  0.78 0.04 0  0.8100000000000001 0.04 0  0.84 0.04 0  0.87 0.04 0  0.9 0.04 0  0.93 0.04 0  0.96 0.04 0  0.99 0.04 0  1.02 0.04 0  1.05 0.04 0  1.08 0.04 0  1.11 0.04 0  1.14 0.04 0  1.17 0.04 0  1.2 0.04 0  1.23 0.04 0  1.26 0.04 0  1.29 0.04 0  1.32 0.04 0  1.35 0.04 0  1.38 0.04 0  1.41 0.04 0  1.44 0.04 0  1.47 0.04 0  1.5 0.04 0  0 0.06 0  0.03 0.06 0  0.06 0.06 0  0.09 0.06 0  0.12 0.06 0  0.15 0.06 0  0.18 0.06 0  0.21 0.06 0  0.24 0.06 0  0.27 0.06 0  0.3 0.06 0  0.33 0.06 0  0.36 0.06 0  0.39 0.06 0  0.42 0.06 0  0.45 0.06 0  0.48 0.06 0  0.51 0.06 0  0.54 0.06 0  0.57 0.06 0  0.6 0.06 0  0.63 0.06 0  0.66 0.06 0  0.6899999999999999 0.06 0  0.72 0.06 0  0.75 0.06 0  0.78 0.06 0  0.8100000000000001 0.06 0  0.84 0.06 0  0.87 0.06 0  0.9 0.06 0  0.93 0.06 0  0.96 0.06 0  0.99 0.06 0  1.02 0.06 0  1.05 0.06 0  1.08 0.06 0  1.11 0.06 0  1.14 0.06 0  1.17 0.06 0  1.2 0.06 0  1.23 0.06 0  1.26 0.06 0  1.29 0.06 0  1.32 0.06 0  1.35 0.06 0  1.38 0.06 0  1.41 0.06 0  1.44 0.06 0  1.47 0.06 0  1.5 0.06 0  0 0.08 0  0.03 0.08 0  0.06 0.08 0  0.09 0.08 0  0.12 0.08 0  0.15 0.08 0  0.18 0.08 0  0.21 0.08 0  0.24 0.08 0  0.27 0.08 0  0.3 0.08 0  0.33 0.08 0  0.36 0.08 0  0.39 0.08 0  0.42 0.08 0  0.45 0.08 0  0.48 0.08 0  0.51 0.08 0  0.54 0.08 0  0.57 0.08 0  0.6 0.08 0  0.63 0.08 0  0.66 0.08 0  0.6899999999999999 0.08 0  0.72 0.08 0  0.75 0.08 0  0.78 0.08 0  0.8100000000000001 0.08 0  0.84 0.08 0  0.87 0.08 0  0.9 0.08 0  0.93 0.08 0  0.96 0.08 0  0.99 0.08 0  1.02 0.08 0  1.05 0.08 0  1.08 0.08 0  1.11 0.08 0  1.14 0.08 0  1.17 0.08 0  1.2 0.08 0  1.23 0.08 0  1.26 0.08 0  1.29 0.08 0  1.32 0.08 0  1.35 0.08 0  1.38 0.08 0  1.41 0.08 0  1.44 0.08 0  1.47 0.08 0  1.5 0.08 0  0 0.1 0  0.03 0.1 0  0.06 0.1 0  0.09 0.1 0  0.12 0.1 0  0.15 0.1 0  0.18 0.1 0  0.21 0.1 0  0.24 0.1 0  0.27 0.1 0  0.3 0.1 0  0.33 0.1 0  0.36 0.1 0  0.39 0.1 0  0.42 0.1 0  0.45 0.1 0  0.48 0.1 0  0.51 0.1 0  0.54 0.1 0  0.57 0.1 0  0.6 0.1 0  0.63 0.1 0  0.66 0.1 0  0.6899999999999999 0.1 0  0.72 0.1 0  0.75 0.1 0  0.78 0.1 0  0.8100000000000001 0.1 0  0.84 0.1 0  0.87 0.1 0  0.9 0.1 0  0.93 0.1 0  0.96 0.1 0  0.99 0.1 0  1.02 0.1 0  1.05 0.1 0  1.08 0.1 0  1.11 0.1 0  1.14 0.1 0  1.17 0.1 0  1.2 0.1 0  1.23 0.1 0  1.26 0.1 0  1.29 0.1 0  1.32 0.1 0  1.35 0.1 0  1.38 0.1 0  1.41 0.1 0  1.44 0.1 0  1.47 0.1 0  1.5 0.1 0  0 0.12 0  0.03 0.12 0  0.06 0.12 0  0.09 0.12 0  0.12 0.12 0  0.15 0.12 0  0.18 0.12 0  0.21 0.12 0  0.24 0.12 0  0.27 0.12 0  0.3 0.12 0  0.33 0.12 0  0.36 0.12 0  0.39 0.12 0  0.42 0.12 0  0.45 0.12 0  0.48 0.12 0  0.51 0.12 0  0.54 0.12 0  0.57 0.12 0  0.6 0.12 0  0.63 0.12 0  0.66 0.12 0  0.6899999999999999 0.12 0  0.72 0.12 0  0.75 0.12 0  0.78 0.12 0  0.8100000000000001 0.12 0  0.84 0.12 0  0.87 0.12 0  0.9 0.12 0  0.93 0.12 0  0.96 0.12 0  0.99 0.12 0  1.02 0.12 0  1.05 0.12 0  1.08 0.12 0  1.11 0.12 0  1.14 0.12 0  1.17 0.12 0  1.2 0.12 0  1.23 0.12 0  1.26 0.12 0  1.29 0.12 0  1.32 0.12 0  1.35 0.12 0  1.38 0.12 0  1.41 0.12 0  1.44 0.12 0  1.47 0.12 0  1.5 0.12 0  0 0.14 0  0.03 0.14 0  0.06 0.14 0  0.09 0.14 0  0.12 0.14 0  0.15 0.14 0  0.18 0.14 0  0.21 0.14 0  0.24 0.14 0  0.27 0.14 0  0.3 0.14 0  0.33 0.14 0  0.36 0.14 0  0.39 0.14 0  0.42 0.14 0  0.45 0.14 0  0.48 0.14 0  0.51 0.14 0  0.54 0.14 0  0.57 0.14 0  0.6 0.14 0  0.63 0.14 0  0.66 0.14 0  0.6899999999999999 0.14 0  0.72 0.14 0  0.75 0.14 0  0.78 0.14 0  0.8100000000000001 0.14 0  0.84 0.14 0  0.87 0.14 0  0.9 0.14 0  0.93 0.14 0  0.96 0.14 0  0.99 0.14 0  1.02 0.14 0  1.05 0.14 0  1.08 0.14 0  1.11 0.14 0  1.14 0.14 0  1.17 0.14 0  1.2 0.14 0  1.23 0.14 0  1.26 0.14 0  1.29 0.14 0  1.32 0.14 0  1.35 0.14 0  1.38 0.14 0  1.41 0.14 0  1.44 0.14 0  1.47 0.14 0  1.5 0.14 0  0 0.16 0  0.03 0.16 0  0.06 0.16 0  0.09 0.16 0  0.12 0.16 0  0.15 0.16 0  0.18 0.16 0  0.21 0.16 0  0.24 0.16 0  0.27 0.16 0  0.3 0.16 0  0.33 0.16 0  0.36 0.16 0  0.39 0.16 0  0.42 0.16 0  0.45 0.16 0  0.48 0.16 0  0.51 0.16 0  0.54 0.16 0  0.57 0.16 0  0.6 0.16 0  0.63 0.16 0  0.66 0.16 0  0.6899999999999999 0.16 0  0.72 0.16 0  0.75 0.16 0  0.78 0.16 0  0.8100000000000001 0.16 0  0.84 0.16 0  0.87 0.16 0  0.9 0.16 0  0.93 0.16 0  0.96 0.16 0  0.99 0.16 0  1.02 0.16 0  1.05 0.16 0  1.08 0.16 0  1.11 0.16 0  1.14 0.16 0  1.17 0.16 0  1.2 0.16 0  1.23 0.16 0  1.26 0.16 0  1.29 0.16 0  1.32 0.16 0  1.35 0.16 0  1.38 0.16 0  1.41 0.16 0  1.44 0.16 0  1.47 0.16 0  1.5 0.16 0  0 0.18 0  0.03 0.18 0  0.06 0.18 0  0.09 0.18 0  0.12 0.18 0  0.15 0.18 0  0.18 0.18 0  0.21 0.18 0  0.24 0.18 0  0.27 0.18 0  0.3 0.18 0  0.33 0.18 0  0.36 0.18 0  0.39 0.18 0  0.42 0.18 0  0.45 0.18 0  0.48 0.18 0  0.51 0.18 0  0.54 0.18 0  0.57 0.18 0  0.6 0.18 0  0.63 0.18 0  0.66 0.18 0  0.6899999999999999 0.18 0  0.72 0.18 0  0.75 0.18 0  0.78 0.18 0  0.8100000000000001 0.18 0  0.84 0.18 0  0.87 0.18 0  0.9 0.18 0  0.93 0.18 0  0.96 0.18 0  0.99 0.18 0  1.02 0.18 0  1.05 0.18 0  1.08 0.18 0  1.11 0.18 0  1.14 0.18 0  1.17 0.18 0  1.2 0.18 0  1.23 0.18 0  1.26 0.18 0  1.29 0.18 0  1.32 0.18 0  1.35 0.18 0  1.38 0.18 0  1.41 0.18 0  1.44 0.18 0  1.47 0.18 0  1.5 0.18 0  0 0.2 0  0.03 0.2 0  0.06 0.2 0  0.09 0.2 0  0.12 0.2 0  0.15 0.2 0  0.18 0.2 0  0.21 0.2 0  0.24 0.2 0  0.27 0.2 0  0.3 0.2 0  0.33 0.2 0  0.36 0.2 0  0.39 0.2 0  0.42 0.2 0  0.45 0.2 0  0.48 0.2 0  0.51 0.2 0  0.54 0.2 0  0.57 0.2 0  0.6 0.2 0  0.63 0.2 0  0.66 0.2 0  0.6899999999999999 0.2 0  0.72 0.2 0  0.75 0.2 0  0.78 0.2 0  0.8100000000000001 0.2 0  0.84 0.2 0  0.87 0.2 0  0.9 0.2 0  0.93 0.2 0  0.96 0.2 0  0.99 0.2 0  1.02 0.2 0  1.05 0.2 0  1.08 0.2 0  1.11 0.2 0  1.14 0.2 0  1.17 0.2 0  1.2 0.2 0  1.23 0.2 0  1.26 0.2 0  1.29 0.2 0  1.32 0.2 0  1.35 0.2 0  1.38 0.2 0  1.41 0.2 0  1.44 0.2 0  1.47 0.2 0  1.5 0.2 0  0 0.22 0  0.03 0.22 0  0.06 0.22 0  0.09 0.22 0  0.12 0.22 0  0.15 0.22 0  0.18 0.22 0  0.21 0.22 0  0.24 0.22 0  0.27 0.22 0  0.3 0.22 0  0.33 0.22 0  0.36 0.22 0  0.39 0.22 0  0.42 0.22 0  0.45 0.22 0  0.48 0.22 0  0.51 0.22 0  0.54 0.22 0  0.57 0.22 0  0.6 0.22 0  0.63 0.22 0  0.66 0.22 0  0.6899999999999999 0.22 0  0.72 0.22 0  0.75 0.22 0  0.78 0.22 0  0.8100000000000001 0.22 0  0.84 0.22 0  0.87 0.22 0  0.9 0.22 0  0.93 0.22 0  0.96 0.22 0  0.99 0.22 0  1.02 0.22 0  1.05 0.22 0  1.08 0.22 0  1.11 0.22 0  1.14 0.22 0  1.17 0.22 0  1.2 0.22 0  1.23 0.22 0  1.26 0.22 0  1.29 0.22 0  1.32 0.22 0  1.35 0.22 0  1.38 0.22 0  1.41 0.22 0  1.44 0.22 0  1.47 0.22 0  1.5 0.22 0  0 0.24 0  0.03 0.24 0  0.06 0.24 0  0.09 0.24 0  0.12 0.24 0  0.15 0.24 0  0.18 0.24 0  0.21 0.24 0  0.24 0.24 0  0.27 0.24 0  0.3 0.24 0  0.33 0.24 0  0.36 0.24 0  0.39 0.24 0  0.42 0.24 0  0.45 0.24 0  0.48 0.24 0  0.51 0.24 0  0.54 0.24 0  0.57 0.24 0  0.6 0.24 0  0.63 0.24 0  0.66 0.24 0  0.6899999999999999 0.24 0  0.72 0.24 0  0.75 0.24 0  0.78 0.24 0  0.8100000000000001 0.24 0  0.84 0.24 0  0.87 0.24 0  0.9 0.24 0  0.93 0.24 0  0.96 0.24 0  0.99 0.24 0  1.02 0.24 0  1.05 0.24 0  1.08 0.24 0  1.11 0.24 0  1.14 0.24 0  1.17 0.24 0  1.2 0.24 0  1.23 0.24 0  1.26 0.24 0  1.29 0.24 0  1.32 0.24 0  1.35 0.24 0  1.38 0.24 0  1.41 0.24 0  1.44 0.24 0  1.47 0.24 0  1.5 0.24 0  0 0.26 0  0.03 0.26 0  0.06 0.26 0  0.09 0.26 0  0.12 0.26 0  0.15 0.26 0  0.18 0.26 0  0.21 0.26 0  0.24 0.26 0  0.27 0.26 0  0.3 0.26 0  0.33 0.26 0  0.36 0.26 0  0.39 0.26 0  0.42 0.26 0  0.45 0.26 0  0.48 0.26 0  0.51 0.26 0  0.54 0.26 0  0.57 0.26 0  0.6 0.26 0  0.63 0.26 0  0.66 0.26 0  0.6899999999999999 0.26 0  0.72 0.26 0  0.75 0.26 0  0.78 0.26 0  0.8100000000000001 0.26 0  0.84 0.26 0  0.87 0.26 0  0.9 0.26 0  0.93 0.26 0  0.96 0.26 0  0.99 0.26 0  1.02 0.26 0  1.05 0.26 0  1.08 0.26 0  1.11 0.26 0  1.14 0.26 0  1.17 0.26 0  1.2 0.26 0  1.23 0.26 0  1.26 0.26 0  1.29 0.26 0  1.32 0.26 0  1.35 0.26 0  1.38 0.26 0  1.41 0.26 0  1.44 0.26 0  1.47 0.26 0  1.5 0.26 0  0 0.28 0  0.03 0.28 0  0.06 0.28 0  0.09 0.28 0  0.12 0.28 0  0.15 0.28 0  0.18 0.28 0  0.21 0.28 0  0.24 0.28 0  0.27 0.28 0  0.3 0.28 0  0.33 0.28 0  0.36 0.28 0  0.39 0.28 0  0.42 0.28 0  0.45 0.28 0  0.48 0.28 0  0.51 0.28 0  0.54 0.28 0  0.57 0.28 0  0.6 0.28 0  0.63 0.28 0  0.66 0.28 0  0.6899999999999999 0.28 0  0.72 0.28 0  0.75 0.28 0  0.78 0.28 0  0.8100000000000001 0.28 0  0.84 0.28 0  0.87 0.28 0  0.9 0.28 0  0.93 0.28 0  0.96 0.28 0  0.99 0.28 0  1.02 0.28
[...]
<PointData  Scalars="ControlVisualisation"> 
<DataArray  type="Float64"  Name="ControlVisualisation"  format="ascii">4.8190722670551477e-04  1.8386849312537756e-04  1.8529654726283156e-04  1.8828206075376542e-04  1.9296668693070083e-04  1.9887095485375582e-04  2.0516552373574639e-04  2.1106037810787173e-04  2.1602559649254753e-04  2.1982295268051623e-04  2.2243026858609306e-04  2.2395165064594599e-04  2.2455754637457429e-04  2.2444683837623573e-04  2.2381742720970323e-04  2.2284605384823193e-04  2.2168008284635665e-04  2.2043766144068258e-04  2.1921070251933661e-04  2.1806801155021659e-04  2.1705853942159811e-04  2.1621515758575181e-04  2.1555866869165047e-04  2.1510138756466752e-04  2.1484984354213288e-04  2.1480654359022936e-04  2.1497094037336000e-04  2.1533976045697619e-04  2.1590675332636101e-04  2.1666177155479655e-04  2.1758890066184101e-04  2.1866331025846564e-04  2.1984681917909055e-04  2.2108277818762637e-04  2.2229110107827889e-04  2.2336384988109678e-04  2.2416172784804275e-04  2.2451337164105514e-04  2.2422170223564478e-04  2.2308031395866209e-04  2.2090189882591595e-04  2.1756698634522098e-04  2.1308341997766525e-04  2.0762619683474971e-04  2.0156142346809940e-04  1.9550289692276887e-04  1.9025703286253528e-04  1.8650044982336305e-04  1.8440638786966891e-04  1.8355955865623826e-04  2.7068767933103779e-03  1.8364933181992020e-04  4.6257127436416957e-05  4.6891223053138319e-05  4.8354489964991558e-05  5.0880984032309522e-05  5.4395526283419456e-05  5.8527807659905159e-05  6.2762322145630545e-05  6.6616167615747481e-05  6.9760377168153788e-05  7.2040077303275104e-05  7.3436579778152211e-05  7.4031824237582710e-05  7.3976754394937914e-05  7.3449766278776280e-05  7.2618227325046362e-05  7.1619564210262908e-05  7.0559905265589907e-05  6.9518946466118770e-05  6.8554297942164614e-05  6.7704927402535437e-05  6.6994983067125008e-05  6.6438051845428819e-05  6.6040963087649410e-05  6.5806479871643574e-05  6.5734879587567730e-05  6.5824778093066024e-05  6.6073545923023193e-05  6.6477498080306716e-05  6.7031802433729654e-05  6.7729673096145106e-05  6.8560079913623090e-05  6.9503409392138085e-05  7.0525451379591358e-05  7.1570755311934058e-05  7.2555979620537656e-05  7.3363596353789168e-05  7.3839103968997930e-05  7.3800194535793891e-05  7.3061684590952636e-05  7.1475697210587105e-05  6.8991268806514391e-05  6.5717571709218020e-05  6.1915546698885875e-05  5.7892072126938029e-05  5.4005819999878310e-05  5.0699209867174390e-05  4.8308275246190368e-05  4.6896911188885025e-05  4.6259118294273999e-05  1.8351382823109325e-04  1.8407244709123943e-04  4.6448395313102714e-05  4.7298839667958732e-05  4.9244866782191749e-05  5.2579119609874820e-05  5.7201500879866009e-05  6.2669654468253903e-05  6.8336787913031698e-05  7.3555702831401906e-05  7.7860601693955853e-05  8.1003762430138185e-05  8.2913100063017331e-05  8.3672897524761022e-05  8.3494743153929383e-05  8.2645018032759428e-05  8.1372964216143689e-05  7.9879170419016286e-05  7.8316254478212957e-05  7.6797634427815380e-05  7.5403568089438266e-05  7.4185918611538448e-05  7.3174419873742180e-05  7.2383929754634042e-05  7.1820637593217156e-05  7.1486118554040662e-05  7.1379494927551086e-05  7.1498471379846315e-05  7.1839831321183090e-05  7.2399690356246462e-05  7.3173526289110544e-05  7.4155393308390424e-05  7.5334863250735035e-05  7.6690347816028934e-05  7.8179386658510167e-05  7.9728259033799449e-05  8.1222359223646207e-05  8.2496140870280763e-05  8.3326359238520761e-05  8.3443867212289712e-05  8.2573279463784861e-05  8.0495046968692696e-05  7.7122494298382388e-05  7.2637671242241006e-05  6.7502112091128146e-05  6.2162052762433032e-05  5.6992131103520902e-05  5.2553701114411641e-05  4.9322040407062109e-05  4.7391495654587178e-05  4.6508722341313292e-05  1.8386516285665575e-04  1.8446676101506639e-04  4.6712470540106413e-05  4.7915589992454568e-05  5.0425445925314678e-05  5.4391096926355818e-05  5.9534355224708565e-05  6.5343098732511574e-05  7.1139058430100613e-05  7.6285440863717215e-05  8.0406129021012938e-05  8.3327691239321652e-05  8.4982421072285486e-05  8.5452355489560716e-05  8.4979548354284073e-05  8.3864534775749192e-05  8.2368085159429186e-05  8.0685930124557281e-05  7.8964658519173163e-05  7.7315773263817236e-05  7.5818850769192141e-05  7.4523296256184465e-05  7.3454732076679366e-05  7.2623947109937310e-05  7.2034224967751359e-05  7.1685433985418934e-05  7.1575732112827764e-05  7.1702228014686002e-05  7.2061314688931163e-05  7.2648972671763689e-05  7.3461302413340389e-05  7.4494833922375200e-05  7.5744271550916720e-05  7.7194893179252828e-05  7.8810367389731389e-05  8.0521300055913340e-05  8.2217634198008226e-05  8.3738799479529755e-05  8.4859745831432267e-05  8.5292555463546953e-05  8.4741223146580797e-05  8.2949285141335153e-05  7.9720455766293333e-05  7.5202297526906665e-05  7.0005138793702813e-05  6.4698082212192535e-05  5.9247334502202532e-05  5.4203714544461641e-05  5.0389959759837002e-05  4.7982005425919062e-05  4.6817230555850665e-05  1.8437151076864397e-04  1.8438396938020738e-04  4.7046081811679416e-05  4.9196877727022406e-05  5.3036574950621846e-05  5.8121428790938474e-05  6.3809316645443113e-05  6.9745004740840496e-05  7.5323712032332804e-05  7.9974274350136810e-05  8.3540289577650056e-05  8.5970230502818105e-05  8.7142771445602833e-05  8.7109498575137483e-05  8.6169879514637858e-05  8.4677256355853662e-05  8.2892400180432403e-05  8.0985579581758452e-05  7.9084953968935629e-05  7.7296169769289907e-05  7.5696303646610556e-05  7.4329173218007361e-05  7.3212499325124667e-05  7.2350187916173179e-05  7.1741255708726928e-05  7.1383418827566762e-05  7.1273719089707654e-05  7.1408540042529160e-05  7.1783717828248841e-05  7.2394771846537569e-05  7.3238063605092756e-05  7.4313218842738532e-05  7.5623123447224588e-05  7.7165212414338422e-05  7.8914181702483162e-05  8.0808597329875154e-05  8.2748376381167662e-05  8.4591057010642914e-05  8.6123600558091554e-05  8.7041607573614625e-05  8.7047956030004547e-05  8.5836421348866546e-05  8.3047161845021481e-05  7.8641156991795819e-05  7.3495777375573879e-05  6.8977302599502761e-05  6.3590450040578242e-05  5.7500691035107868e-05  5.2598386832091804e-05  4.9132289428945996e-05  4.7088772981897491e-05  1.8461066472494217e-04  1.8449578826719741e-04  4.7938681540590647e-05  5.4687244534616392e-05  6.6267930758146833e-05  7.4599026741842527e-05  7.7792894750715932e-05  8.0016725788797580e-05  8.2877865629539700e-05  8.5599260318611290e-05  8.7919511143300100e-05  8.9580990295889690e-05  9.0057291131067762e-05  8.9270220991705639e-05  8.7650313668856394e-05  8.5643564590374283e-05  8.3486106172609136e-05  8.1291038255831925e-05  7.9157327096477346e-05  7.7187591854605084e-05  7.5458629140092489e-05  7.4005545955146360e-05  7.2832991421445045e-05  7.1934498676860283e-05  7.1303629752382611e-05  7.0935843020508271e-05  7.0827034126187856e-05  7.0972724497474909e-05  7.1368082722844672e-05  7.2007736741548645e-05  7.2887190910933108e-05  7.4008798089140754e-05  7.5387244380484275e-05  7.7039813875280638e-05  7.8958416495482266e-05  8.1089580834710091e-05  8.3341311173540291e-05  8.5607286467288390e-05  8.7707848081169330e-05  8.9318436082171798e-05  9.0125872237956702e-05  8.9908543112241033e-05  8.8330367009296831e-05  8.4451765335950574e-05  8.0379123646177279e-05  8.0496623597051814e-05  7.9052238936241481e-05  7.1534818465836172e-05  6.0318810612849591e-05  5.2037932820992328e-05  4.7316703528503404e-05  1.8423045429924369e-04  1.9484101637861099e-04  5.5762449129144681e-05  1.0503908855316732e-04  3.2928516657361635e-04  5.8107755826267756e-04  3.4573160281150140e-04  1.7141149075778185e-04  1.1357050621947336e-04  9.7870486220307407e-05  9.4722262299295774e-05  9.4624883290887665e-05  9.3999867314174031e-05  9.2050932533486833e-05  8.9459004012122732e-05  8.6796139694579784e-05  8.4193943408597104e-05  8.1647719380800385e-05  7.9218690001370100e-05  7.7020137350964930e-05  7.5135018927158931e-05  7.3583868562169131e-05  7.2349513893142647e-05  7.1410593638431864e-05  7.0754767985220686e-05  7.0375921854135253e-05  7.0268963437069339e-05  7.0428318232432577e-05  7.0848574473540444e-05  7.1523250471476011e-05  7.2444591521234405e-05  7.3614763980686063e-05  7.5064272137045657e-05  7.6843373378641423e-05  7.8972787648402300e-05  8.1400276337407953e-05  8.4031736165844032e-05  8.6826054960585479e-05  8.9681346067310968e-05  9.2257097477451994e-05  9.4181515851326104e-05  9.6151415808700454e-05  9.8513550720948171e-05  1.0040679185732617e-04  1.1392681584673639e-04  1.7956934289220430e-04  3.1813730298403762e-04  5.1231576968920403e-04  3.9566057406079103e-04  1.2942270236463490e-04  5.3461049145872358e-05  1.8521453051865500e-04  2.3531814683661577e-04  2.6230544006372288e-04  2.8290928977205247e-02  6.1524961573790497e-02  5.8452409306957435e-02  3.7268849562228382e-02  1.1800739264805469e-02  1.1372916779213999e-03  1.9846152104506694e-04  1.1560769663536549e-04  1.0386720594912895e-04  9.9755535421402076e-05  9.5578714417241754e-05  9.1546922319926238e-05  8.8102295841663292e-05  8.5017718725918789e-05  8.2060587224547319e-05  7.9259923518326843e-05  7.6777054085995760e-05  7.4712854544246345e-05  7.3059691465021410e-05  7.1763010573309017e-05  7.0781283792353128e-05  7.0097942916457021e-05  6.9707395628523013e-05  6.9603738333525074e-05  6.9779566403552814e-05  7.0229379928844239e-05  7.0946696962009923e-05  7.1916317075391978e-05  7.3131499665924672e-05  7.4641037105958354e-05  7.6552322233836966e-05  7.8940264848299975e-05  8.1736355555781220e-05  8.4818939793492986e-05  8.8208000458230885e-05  9.2090658186515673e-05  9.6198907094652460e-05  1.0018513499600182e-04  1.0874086631654581e-04  1.3349576357866511e-04  2.0394495424020526e-04  7.9275213152698101e-04  9.2695737975680374e-03  3.2851840394666348e-02  5.3939834696819920e-02  6.1284844920864209e-02  4.6460169047859851e-02  2.8240920160666665e-04  2.1549326168517112e-04  1.3579900909014815e-03  9.0146006435522397e-02  2.1492090763529306e-01  2.2048629417359913e-01  1.8782610690339474e-01  1.4050618099156531e-01  8.9778471369171012e-02  4.3705517872014529e-02  8.3027676794342770e-03  4.3863096913964589e-04  1.4226746408249613e-04  1.1208022539773224e-04  1.0051858131628934e-04  9.3902436517697731e-05  8.9540780212451002e-05  8.5986311558658348e-05  8.2548795438686703e-05  7.9264440819697482e-05  7.6427740586332282e-05  7.4171432029792195e-05  7.2426824376263868e-05  7.1074347256888572e-05  7.0048272559210950e-05  6.9334508450427049e-05  6.8932183052682235e-05  6.8834239421635551e-05  6.9029206374258793e-05  6.9512218430113279e-05  7.0282055530447932e-05  7.1311023669922043e-05  7.2562469990461020e-05  7.4096388157012666e-05  7.6125277920646370e-05  7.8835108922825810e-05  8.2116388470770442e-05  8.5734715614345196e-05  8.9692519091725924e-05  9.5343112677558593e-05  1.0274627651324277e-04  1.1473638855218548e-04  1.6698114869719829e-04  4.6910156430988309e-04  5.5734006765046050e-03  3.5894695131626554e-02  8.2950710607966369e-02  1.3533329274648978e-01  1.8270850092933774e-01  2.1460165705389136e-01  2.1308456577165943e-01  1.1588671861381626e-01  6.6823225992984885e-04  4.1156006153641483e-01  4.6827702566103419e-01  5.0057732993819648e-01  4.2950182747335752e-01  3.6297147373470895e-01  2.8409938783721900e-01  2.0396373350035715e-01  1.3045019907303801e-01  6.9236711986580435e-02  2.1203751027183998e-02  1.3194920395971062e-03  1.8256910584370277e-04  1.1255727932305785e-04  9.7627698050889531e-05  9.1386044009736551e-05  8.7263405303728264e-05  8.3185501616958851e-05  7.9210080455766746e-05  7.5925750172549204e-05  7.3486591683006187e-05  7.1685624405313630e-05  7.0290892011872549e-05  6.9216112986002047e-05  6.8466967673191242e-05  6.8053704579162152e-05  6.7966090779127304e-05  6.8182520470752832e-05  6.8698228125815830e-05  6.9533621689763566e-05  7.0649042341754988e-05  7.1928892721571328e-05  7.3406676152591201e-05  7.5498421941449026e-05  7.8624923479001397e-05  8.2664707625531610e-05  8.7018980494202661e-05  9.1760358487270877e-05  1.0156790172516882e-04  1.2417678233628011e-04  2.0840216253772926e-04  1.0173455873049402e-03  1.6465446271233586e-02  6.2836750777757050e-02  1.2592565718667420e-01  2.0025555619510058e-01  2.7988801074317754e-01  3.5835020824169084e-01  4.2360764557290903e-01  4.5595496475317071e-01  4.7971314478336996e-01  3.6048683770728041e-01  9.9213834000838241e-01  9.6703511102666007e-01  7.9419841559637472e-01  6.6811621383305064e-01  5.6264337909605133e-01  4.5142802061473064e-01  3.4577982059843321e-01  2.4667443941570577e-01  1.5950324376774311e-01  8.8759311877700600e-02  3.5198248697471096e-02  4.1627821191931452e-03  2.4931439788972772e-04  1.1418376493835996e-04  9.6562011520339927e-05  8.9866995536875237e-05  8.4314929136070863e-05  7.9116265430008003e-05  7.5234655428847459e-05  7.2656463342715694e-05  7.0869208401776618e-05  6.9445041949504210e-05  6.8304148882548585e-05  6.7509483188551121e-05  6.7087671376024616e-05  6.7019532939034242e-05  6.7260877409176974e-05  6.7799528747602023e-05  6.8714397358600118e-05  6.9983633006675313e-05  7.1308151141406210e-05  7.2590837501170392e-05  7.4617461599302531e-05  7.8372504673393517e-05  8.3998035680037109e-05  9.0322103594947176e-05  9.9144846307447961e-05  1.3637876269345824e-04  2.9953449159968344e-04  2.6151608458302306e-03  2.8529464384862639e-02  8.3565718773470923e-02  1.5622686751821252e-01  2.4323847928893008e-01  3.4224085661583942e-01  4.4894529198664679e-01  5.5147277406348683e-01  6.6237104193797236e-01  8.1002035968992447e-01  9.7643374762077340e-01  9.7637395739208122e-01  9.9978797598609959e-01  9.9988834450922470e-01  9.9732360977012424e-01  9.0251446104398303e-01  7.4846277348151868e-01  6.2070688958078613e-01  4.9724548191250811e-01  3.8019513808813621e-01  2.7318982815743342e-01  1.8036720826585748e-01  1.0479521429172123e-01  4.8147488164014228e-02  9.9021211615705623e-03  4.9202027396314831e-04  1.3069894879757290e-04  1.0151658065750326e-04  8.8275098628465276e-05  7.9743172195325882e-05  7.4746767977612594e-05  7.1978656607820518e-05  7.0264482740620051e-05  6.8767207062215424e-05  6.7490096792492335e-05  6.6621458563793489e-05  6.6189823129831141e-05  6.6157679993429468e-05  6.6440284164179676e-05  6.6976193580586731e-05  6.7970801568052481e-05  6.9581321575875286e-05  7.1130829702941746e-05  7.2122611757229060e-05  7.3901243374904779e-05  7.9351140710219592e-05  9.0241842167364944e-05  1.0792629074826959e-04  1.5944606635079784e-04  4.7334596923948383e-04  7.1776828298606658e-03  4.2420252099246221e-02  1.0019387900662299e-01  1.7692520784416879e-01  2.7030717825632494e-01  3.7780460088176798e-01  4.9599670081939384e-01  6.1617376599350848e-01  7.4745826376063507e-01  9.2927442472951960e-01  9.9885556222849592e-01  9.9991870823486728e-01  9.9954636428477939e-01  9.9992586777280290e-01  9.9997893608344623e-01  9.9987839220579811e-01  9.9667920360457085e-01  9.0755882625988882e-01  7.6935580284416683e-01  6.4181380121499476e-01  5.1707301915924297e-01  3.9877738231838034e-01  2.9088734013987877e-01  1.9744973394281834e-01  1.2105251733224083e-01  6.3431303979951947e-02  2.2102677611325110e-02  2.3159089131857321e-03  2.8803951365346907e-04  1.2528618326986462e-04  9.1627395216282818e-05  8.0365105122603541e-05  7.5367801232814266e-05  7.2943836423487556e-05  7.0811086969839801e-05  6.8990178648245613e-05  6.7835805314585447e-05  6.7282410168338636e-05  6.7287062109566698e-05  6.7698344385361958e-05  6.8266295931202273e-05  6.9428849220870125e-05  7.2043739256463703e-05  7.4998378085217379e-05  7.7237702595995671e-05  8.2039938914174170e-05  9.9608017598048181e-05  1.4872893139087446e-04  3.1273823043566872e-04  1.7332486126594368e-03  1.7294442222073686e-02  5.8219465966767248e-02  1.1778013450466246e-01  1.9441480359635996e-01  2.8824829995836171e-01  3.9712037702755920e-01  5.1678564662035675e-01  6.4101422788454276e-01  7.6980668746339720e-01  9.2834662571622828e-01  9.9792663564066475e-01  9.9989299361171935e-01  9.9997944881395195e-01  9.9991086176270605e-01  9.9991480200126404e-01  9.9998224737733477e-01  9.9994024709972229e-01  9.9944549179466735e-01  9.8567810805381251e-01  8.8255190059103739e-01  7.6417379192450008e-01  6.4406099457281241e-01  5.2469541499351113e-01  4.1059964272052035e-01  3.0666963386557072e-01  2.1669120141249237e-01  1.4284705096697978e-01  8.6381505878588227e-02  4.5907904750380993e-02  1.7103055397879142e-02  3.1818522793771445e-03  5.5169151033078283e-04  2.2642870516579369e-04  1.5289262425881387e-04  1.2742870003027915e-04  1.1213030769923306e-04  1.0396009800772406e-04  9.9856441437168233e-05  9.7664771215366653e-05  9.7297041072363488e-05  9.8529106597813453e-05  1.0049972148451622e-04  1.0515296257639127e-04  1.1834673421960706e-04  1.3827902170908228e-04  1.6251794200155623e-04  2.1534071458335653e-04  5.2217721969521555e-04  2.4869160611603013e-03  1.3689782062717266e-02  4.1899949873178376e-02  8.3535559484145844e-02  1.4039522106516858e-01  2.1415195342264359e-01  3.0457213564833596e-01  4.0956562503160238e-01  5.2483115304960093e-01  6.4513420988480408e-01  7.6577706260400691e-01  8.9401827409204127e-01  9.8895101939812069e-01  9.9944767901902853e-01  9.9993751713921919e-01  9.9998173749417596e-01  9.9992691482421614e-01  9.9960679038225986e-01  9.9995588194822227e-01  9.9987635015229603e-01  9.9937103698006491e-01  9.9404651925387477e-01  9.4679198393599118e-01  8.5307506788989462e-01  7.4987016797370831e-01  6.4012625515907007e-01  5.2943533164763357e-01  4.2358134151009064e-01  3.2755432530177864e-01  2.4474075494264064e-01  1.7663871147670065e-01  1.2383779728266639e-01  8.5094877834336363e-02  5.6813892570034469e-02  3.5594351165173253e-02  2.0634888313159346e-02  1.1851841505670460e-02  7.4640327985007297e-03  4.8621166622498293e-03  3.4505116834933260e-03  2.7712853353879813e-03  2.4429168167626296e-03  2.3523290027707127e-03  2.4492736348914442e-03  2.7269667263370295e-03  3.3134002328027417e-03  4.6355591812876976e-03  7.1390495505134124e-03  1.1064163744633013e-02  1.8248904982053789e-02  3.1670851862255878e-02  5.3774683638318291e-02  8.2851875087956592e-02  1.2237279354557716e-01  1.7538931531930019e-01  2.4290074278136550e-01  3.2614684411096156e-01  4.2313161053930909e-01  5.2999731225018976e-01  6.4168872657813214e-01  7.5275404304577798e-01  8.5922509020906845e-01  9.5221991878751511e-01  9.9350680106622469e-01  9.9921420596218535e-01  9.9984790409476376e-01  9.9994860553478271e-01  9.9980827315686438e-01  9.7539763730550422e-01  9.9786286490857878e-01  9.9732794151486026e-01  9.9498036441054849e-01  9.8666247132968787e-01  9.5874806539295365e-01  9.0228016103958353e-01  8.2630020203640409e-01  7.3581700495757985e-01  6.3794576836078232e-01  5.3908635420547923e-01  4.4524288147168495e-01  3.6108009328824747e-01  2.8929043821168676e-01  2.3073893725147124e-01  1.8512130359700418e-01  1.5080244310572327e-01  1.2515772577310774e-01  1.0679630956313832e-01  9.4366546772911106e-02  8.5707666808304897e-02  7.9546542218178043e-02  7.4893831894499288e-02  7.1630696589224760e-02  6.9828516140391789e-02  6.9341077132084358e-02  6.9908689725521389e-02  7.1540197111664858e-02  7.4412820770775864e-02  7.8768835985045638e-02  8.5016708621744319e-02  9.3862227262648507e-02  1.0606931621098960e-01  1.2326593947837146e-01  1.4909605445989782e-01  1.8420707036169351e-01  2.2967331922428064e-01  2.8820444457600053e-01  3.6057231408462276e-01  4.4545865598971962e-01  5.4007877199194676e-01  6.3984207214632560e-01  7.3896168211967794e-01  8.3097489053293483e-01  9.0795895057116949e-01  9.5917760134455443e-01  9.8488291905698755e-01  9.9386080796151366e-01  9.9730817830616247e-01  9.9836578703641188e-01  9.9456870918239493e-01  3.4431678479887240e-01  6.5227570537461199e-01  8.0217902982086864e-01  8.9189783377327969e-01  9.2679724962769250e-01  9.3100994883515709e-01  9.1141858224095806e-01  8.6849007030121850e-01  8.0509307138764996e-01  7.2805703591867965e-01  6.4455923893359868e-01  5.6131684134855830e-01  4.837732814