<?xml version="1.0"?>
<VTKFile type="UnstructuredGrid"  version="0.1"  >
<UnstructuredGrid>
<Piece  NumberOfPoints="2601" NumberOfCells="5000">
<Points>
<DataArray  type="Float64"  NumberOfComponents="3"  format="ascii">0 0 0  0.03 0 0  0.06 0 0  0.09 0 0  0.12 0 0  0.15 0 0  0.18 0 0  0.21 0 0  0.24 0 0  0.27 0 0  0.3 0 0  0.33 0 0  0.36 0 0  0.39 0 0  0.42 0 0  0.45 0 0  0.48 0 0  0.51 0 0  0.54 0 0  0.57 0 0  0.6 0 0  0.63 0 0  0.66 0 0  0.6899999999999999 0 0  0.72 0 0  0.75 0 0  0.78 0 0  0.8100000000000001 0 0  0.84 0 0  0.87 0 0  0.9 0 0  0.93 0 0  0.96 0 0  0.99 0 0  1.02 0 0  1.05 0 0  1.08 0 0  1.11 0 0  1.14 0 0  1.17 0 0  1.2 0 0  1.23 0 0  1.26 0 0  1.29 0 0  1.32 0 0  1.35 0 0  1.38 0 0  1.41 0 0  1.44 0 0  1.47 0 0  1.5 0 0  0 0.02 0  0.03 0.02 0  0.06 0.02 0  0.09 0.02 0  0.12 0.02 0  0.15 0.02 0  0.18 0.02 0  0.21 0.02 0  0.24 0.02 0  0.27 0.02 0  0.3 0.02 0  0.33 0.02 0  0.36 0.02 0  0.39 0.02 0  0.42 0.02 0  0.45 0.02 0  0.48 0.02 0  0.51 0.02 0  0.54 0.02 0  0.57 0.02 0  0.6 0.02 0  0.63 0.02 0  0.66 0.02 0  0.6899999999999999 0.02 0  0.72 0.02 0  0.75 0.02 0  0.78 0.02 0  0.8100000000000001 0.02 0  0.84 0.02 0  0.87 0.02 0  0.9 0.02 0  0.93 0.02 0  0.96 0.02 0  0.99 0.02 0  1.02 0.02 0  1.05 0.02 0  1.08 0.02 0  1.11 0.02 0  1.14 0.02 0  1.17 0.02 0  1.2 0.02 0  1.23 0.02 0  1.26 0.02 0  1.29 0.02 0  1.32 0.02 0  1.35 0.02 0  1.38 0.02 0  1.41 0.02 0  1.44 0.02 0  1.47 0.02 0  1.5 0.02 0  0 0.04 0  0.03 0.04 0  0.06 0.04 0  0.09 0.04 0  0.12 0.04 0  0.15 0.04 0  0.18 0.04 0  0.21 0.04 0  0.24 0.04 0  0.27 0.04 0  0.3 0.04 0  0.33 0.04 0  0.36 0.04 0  0.39 0.04 0  0.42 0.04 0  0.45 0.04 0  0.48 0.04 0  0.51 0.04 0  0.54 0.04 0  0.57 0.04 0  0.6 0.04 0  0.63 0.04 0  0.66 0.04 0  0.6899999999999999 0.04 0  0.72 0.04 0  0.75 0.04 0  0.78 0.04 0  0.8100000000000001 0.04 0  0.84 0.04 0  0.87 0.04 0  0.9 0.04 0  0.93 0.04 0  0.96 0.04 0  0.99 0.04 0  1.02 0.04 0  1.05 0.04 0  1.08 0.04 0  1.11 0.04 0  1.14 0.04 0  1.17 0.04 0  1.2 0.04 0  1.23 0.04 0  1.26 0.04 0  1.29 0.04 0  1.32 0.04 0  1.35 0.04 0  1.38 0.04 0  1.41 0.04 0  1.44 0.04 0  1.47 0.04 0  1.5 0.04 0  0 0.06 0  0.03 0.06 0  0.06 0.06 0  0.09 0.06 0  0.12 0.06 0  0.15 0.06 0  0.18 0.06 0  0.21 0.06 0  0.24 0.06 0  0.27 0.06 0  0.3 0.06 0  0.33 0.06 0  0.36 0.06 0  0.39 0.06 0  0.42 0.06 0  0.45 0.06 0  0.48 0.06 0  0.51 0.06 0  0.54 0.06 0  0.57 0.06 0  0.6 0.06 0  0.63 0.06 0  0.66 0.06 0  0.6899999999999999 0.06 0  0.72 0.06 0  0.75 0.06 0  0.78 0.06 0  0.8100000000000001 0.06 0  0.84 0.06 0  0.87 0.06 0  0.9 0.06 0  0.93 0.06 0  0.96 0.06 0  0.99 0.06 0  1.02 0.06 0  1.05 0.06 0  1.08 0.06 0  1.11 0.06 0  1.14 0.06 0  1.17 0.06 0  1.2 0.06 0  1.23 0.06 0  1.26 0.06 0  1.29 0.06 0  1.32 0.06 0  1.35 0.06 0  1.38 0.06 0  1.41 0.06 0  1.44 0.06 0  1.47 0.06 0  1.5 0.06 0  0 0.08 0  0.03 0.08 0  0.06 0.08 0  0.09 0.08 0  0.12 0.08 0  0.15 0.08 0  0.18 0.08 0  0.21 0.08 0  0.24 0.08 0  0.27 0.08 0  0.3 0.08 0  0.33 0.08 0  0.36 0.08 0  0.39 0.08 0  0.42 0.08 0  0.45 0.08 0  0.48 0.08 0  0.51 0.08 0  0.54 0.08 0  0.57 0.08 0  0.6 0.08 0  0.63 0.08 0  0.66 0.08 0  0.6899999999999999 0.08 0  0.72 0.08 0  0.75 0.08 0  0.78 0.08 0  0.8100000000000001 0.08 0  0.84 0.08 0  0.87 0.08 0  0.9 0.08 0  0.93 0.08 0  0.96 0.08 0  0.99 0.08 0  1.02 0.08 0  1.05 0.08 0  1.08 0.08 0  1.11 0.08 0  1.14 0.08 0  1.17 0.08 0  1.2 0.08 0  1.23 0.08 0  1.26 0.08 0  1.29 0.08 0  1.32 0.08 0  1.35 0.08 0  1.38 0.08 0  1.41 0.08 0  1.44 0.08 0  1.47 0.08 0  1.5 0.08 0  0 0.1 0  0.03 0.1 0  0.06 0.1 0  0.09 0.1 0  0.12 0.1 0  0.15 0.1 0  0.18 0.1 0  0.21 0.1 0  0.24 0.1 0  0.27 0.1 0  0.3 0.1 0  0.33 0.1 0  0.36 0.1 0  0.39 0.1 0  0.42 0.1 0  0.45 0.1 0  0.48 0.1 0  0.51 0.1 0  0.54 0.1 0  0.57 0.1 0  0.6 0.1 0  0.63 0.1 0  0.66 0.1 0  0.6899999999999999 0.1 0  0.72 0.1 0  0.75 0.1 0  0.78 0.1 0  0.8100000000000001 0.1 0  0.84 0.1 0  0.87 0.1 0  0.9 0.1 0  0.93 0.1 0  0.96 0.1 0  0.99 0.1 0  1.02 0.1 0  1.05 0.1 0  1.08 0.1 0  1.11 0.1 0  1.14 0.1 0  1.17 0.1 0  1.2 0.1 0  1.23 0.1 0  1.26 0.1 0  1.29 0.1 0  1.32 0.1 0  1.35 0.1 0  1.38 0.1 0  1.41 0.1 0  1.44 0.1 0  1.47 0.1 0  1.5 0.1 0  0 0.12 0  0.03 0.12 0  0.06 0.12 0  0.09 0.12 0  0.12 0.12 0  0.15 0.12 0  0.18 0.12 0  0.21 0.12 0  0.24 0.12 0  0.27 0.12 0  0.3 0.12 0  0.33 0.12 0  0.36 0.12 0  0.39 0.12 0  0.42 0.12 0  0.45 0.12 0  0.48 0.12 0  0.51 0.12 0  0.54 0.12 0  0.57 0.12 0  0.6 0.12 0  0.63 0.12 0  0.66 0.12 0  0.6899999999999999 0.12 0  0.72 0.12 0  0.75 0.12 0  0.78 0.12 0  0.8100000000000001 0.12 0  0.84 0.12 0  0.87 0.12 0  0.9 0.12 0  0.93 0.12 0  0.96 0.12 0  0.99 0.12 0  1.02 0.12 0  1.05 0.12 0  1.08 0.12 0  1.11 0.12 0  1.14 0.12 0  1.17 0.12 0  1.2 0.12 0  1.23 0.12 0  1.26 0.12 0  1.29 0.12 0  1.32 0.12 0  1.35 0.12 0  1.38 0.12 0  1.41 0.12 0  1.44 0.12 0  1.47 0.12 0  1.5 0.12 0  0 0.14 0  0.03 0.14 0  0.06 0.14 0  0.09 0.14 0  0.12 0.14 0  0.15 0.14 0  0.18 0.14 0  0.21 0.14 0  0.24 0.14 0  0.27 0.14 0  0.3 0.14 0  0.33 0.14 0  0.36 0.14 0  0.39 0.14 0  0.42 0.14 0  0.45 0.14 0  0.48 0.14 0  0.51 0.14 0  0.54 0.14 0  0.57 0.14 0  0.6 0.14 0  0.63 0.14 0  0.66 0.14 0  0.6899999999999999 0.14 0  0.72 0.14 0  0.75 0.14 0  0.78 0.14 0  0.8100000000000001 0.14 0  0.84 0.14 0  0.87 0.14 0  0.9 0.14 0  0.93 0.14 0  0.96 0.14 0  0.99 0.14 0  1.02 0.14 0  1.05 0.14 0  1.08 0.14 0  1.11 0.14 0  1.14 0.14 0  1.17 0.14 0  1.2 0.14 0  1.23 0.14 0  1.26 0.14 0  1.29 0.14 0  1.32 0.14 0  1.35 0.14 0  1.38 0.14 0  1.41 0.14 0  1.44 0.14 0  1.47 0.14 0  1.5 0.14 0  0 0.16 0  0.03 0.16 0  0.06 0.16 0  0.09 0.16 0  0.12 0.16 0  0.15 0.16 0  0.18 0.16 0  0.21 0.16 0  0.24 0.16 0  0.27 0.16 0  0.3 0.16 0  0.33 0.16 0  0.36 0.16 0  0.39 0.16 0  0.42 0.16 0  0.45 0.16 0  0.48 0.16 0  0.51 0.16 0  0.54 0.16 0  0.57 0.16 0  0.6 0.16 0  0.63 0.16 0  0.66 0.16 0  0.6899999999999999 0.16 0  0.72 0.16 0  0.75 0.16 0  0.78 0.16 0  0.8100000000000001 0.16 0  0.84 0.16 0  0.87 0.16 0  0.9 0.16 0  0.93 0.16 0  0.96 0.16 0  0.99 0.16 0  1.02 0.16 0  1.05 0.16 0  1.08 0.16 0  1.11 0.16 0  1.14 0.16 0  1.17 0.16 0  1.2 0.16 0  1.23 0.16 0  1.26 0.16 0  1.29 0.16 0  1.32 0.16 0  1.35 0.16 0  1.38 0.16 0  1.41 0.16 0  1.44 0.16 0  1.47 0.16 0  1.5 0.16 0  0 0.18 0  0.03 0.18 0  0.06 0.18 0  0.09 0.18 0  0.12 0.18 0  0.15 0.18 0  0.18 0.18 0  0.21 0.18 0  0.24 0.18 0  0.27 0.18 0  0.3 0.18 0  0.33 0.18 0  0.36 0.18 0  0.39 0.18 0  0.42 0.18 0  0.45 0.18 0  0.48 0.18 0  0.51 0.18 0  0.54 0.18 0  0.57 0.18 0  0.6 0.18 0  0.63 0.18 0  0.66 0.18 0  0.6899999999999999 0.18 0  0.72 0.18 0  0.75 0.18 0  0.78 0.18 0  0.8100000000000001 0.18 0  0.84 0.18 0  0.87 0.18 0  0.9 0.18 0  0.93 0.18 0  0.96 0.18 0  0.99 0.18 0  1.02 0.18 0  1.05 0.18 0  1.08 0.18 0  1.11 0.18 0  1.14 0.18 0  1.17 0.18 0  1.2 0.18 0  1.23 0.18 0  1.26 0.18 0  1.29 0.18 0  1.32 0.18 0  1.35 0.18 0  1.38 0.18 0  1.41 0.18 0  1.44 0.18 0  1.47 0.18 0  1.5 0.18 0  0 0.2 0  0.03 0.2 0  0.06 0.2 0  0.09 0.2 0  0.12 0.2 0  0.15 0.2 0  0.18 0.2 0  0.21 0.2 0  0.24 0.2 0  0.27 0.2 0  0.3 0.2 0  0.33 0.2 0  0.36 0.2 0  0.39 0.2 0  0.42 0.2 0  0.45 0.2 0  0.48 0.2 0  0.51 0.2 0  0.54 0.2 0  0.57 0.2 0  0.6 0.2 0  0.63 0.2 0  0.66 0.2 0  0.6899999999999999 0.2 0  0.72 0.2 0  0.75 0.2 0  0.78 0.2 0  0.8100000000000001 0.2 0  0.84 0.2 0  0.87 0.2 0  0.9 0.2 0  0.93 0.2 0  0.96 0.2 0  0.99 0.2 0  1.02 0.2 0  1.05 0.2 0  1.08 0.2 0  1.11 0.2 0  1.14 0.2 0  1.17 0.2 0  1.2 0.2 0  1.23 0.2 0  1.26 0.2 0  1.29 0.2 0  1.32 0.2 0  1.35 0.2 0  1.38 0.2 0  1.41 0.2 0  1.44 0.2 0  1.47 0.2 0  1.5 0.2 0  0 0.22 0  0.03 0.22 0  0.06 0.22 0  0.09 0.22 0  0.12 0.22 0  0.15 0.22 0  0.18 0.22 0  0.21 0.22 0  0.24 0.22 0  0.27 0.22 0  0.3 0.22 0  0.33 0.22 0  0.36 0.22 0  0.39 0.22 0  0.42 0.22 0  0.45 0.22 0  0.48 0.22 0  0.51 0.22 0  0.54 0.22 0  0.57 0.22 0  0.6 0.22 0  0.63 0.22 0  0.66 0.22 0  0.6899999999999999 0.22 0  0.72 0.22 0  0.75 0.22 0  0.78 0.22 0  0.8100000000000001 0.22 0  0.84 0.22 0  0.87 0.22 0  0.9 0.22 0  0.93 0.22 0  0.96 0.22 0  0.99 0.22 0  1.02 0.22 0  1.05 0.22 0  1.08 0.22 0  1.11 0.22 0  1.14 0.22 0  1.17 0.22 0  1.2 0.22 0  1.23 0.22 0  1.26 0.22 0  1.29 0.22 0  1.32 0.22 0  1.35 0.22 0  1.38 0.22 0  1.41 0.22 0  1.44 0.22 0  1.47 0.22 0  1.5 0.22 0  0 0.24 0  0.03 0.24 0  0.06 0.24 0  0.09 0.24 0  0.12 0.24 0  0.15 0.24 0  0.18 0.24 0  0.21 0.24 0  0.24 0.24 0  0.27 0.24 0  0.3 0.24 0  0.33 0.24 0  0.36 0.24 0  0.39 0.24 0  0.42 0.24 0  0.45 0.24 0  0.48 0.24 0  0.51 0.24 0  0.54 0.24 0  0.57 0.24 0  0.6 0.24 0  0.63 0.24 0  0.66 0.24 0  0.6899999999999999 0.24 0  0.72 0.24 0  0.75 0.24 0  0.78 0.24 0  0.8100000000000001 0.24 0  0.84 0.24 0  0.87 0.24 0  0.9 0.24 0  0.93 0.24 0  0.96 0.24 0  0.99 0.24 0  1.02 0.24 0  1.05 0.24 0  1.08 0.24 0  1.11 0.24 0  1.14 0.24 0  1.17 0.24 0  1.2 0.24 0  1.23 0.24 0  1.26 0.24 0  1.29 0.24 0  1.32 0.24 0  1.35 0.24 0  1.38 0.24 0  1.41 0.24 0  1.44 0.24 0  1.47 0.24 0  1.5 0.24 0  0 0.26 0  0.03 0.26 0  0.06 0.26 0  0.09 0.26 0  0.12 0.26 0  0.15 0.26 0  0.18 0.26 0  0.21 0.26 0  0.24 0.26 0  0.27 0.26 0  0.3 0.26 0  0.33 0.26 0  0.36 0.26 0  0.39 0.26 0  0.42 0.26 0  0.45 0.26 0  0.48 0.26 0  0.51 0.26 0  0.54 0.26 0  0.57 0.26 0  0.6 0.26 0  0.63 0.26 0  0.66 0.26 0  0.6899999999999999 0.26 0  0.72 0.26 0  0.75 0.26 0  0.78 0.26 0  0.8100000000000001 0.26 0  0.84 0.26 0  0.87 0.26 0  0.9 0.26 0  0.93 0.26 0  0.96 0.26 0  0.99 0.26 0  1.02 0.26 0  1.05 0.26 0  1.08 0.26 0  1.11 0.26 0  1.14 0.26 0  1.17 0.26 0  1.2 0.26 0  1.23 0.26 0  1.26 0.26 0  1.29 0.26 0  1.32 0.26 0  1.35 0.26 0  1.38 0.26 0  1.41 0.26 0  1.44 0.26 0  1.47 0.26 0  1.5 0.26 0  0 0.28 0  0.03 0.28 0  0.06 0.28 0  0.09 0.28 0  0.12 0.28 0  0.15 0.28 0  0.18 0.28 0  0.21 0.28 0  0.24 0.28 0  0.27 0.28 0  0.3 0.28 0  0.33 0.28 0  0.36 0.28 0  0.39 0.28 0  0.42 0.28 0  0.45 0.28 0  0.48 0.28 0  0.51 0.28 0  0.54 0.28 0  0.57 0.28 0  0.6 0.28 0  0.63 0.28 0  0.66 0.28 0  0.6899999999999999 0.28 0  0.72 0.28 0  0.75 0.28 0  0.78 0.28 0  0.8100000000000001 0.28 0  0.84 0.28 0  0.87 0.28 0  0.9 0.28 0  0.93 0.28 0  0.96 0.28 0  0.99 0.28 0  1.02 0.28
[...]
<PointData  Scalars="ControlVisualisation"> 
<DataArray  type="Float64"  Name="ControlVisualisation"  format="ascii">2.5184891077299781e-04  1.6808571058232085e-04  1.6870863923517057e-04  1.6998895152890402e-04  1.7196045960460386e-04  1.7441139334859170e-04  1.7700191281019560e-04  1.7941172335258059e-04  1.8142543997325063e-04  1.8294748803220962e-04  1.8397211754235610e-04  1.8454646808929904e-04  1.8474480651887808e-04  1.8465194018583273e-04  1.8435152789248244e-04  1.8391849454632410e-04  1.8341537259910454e-04  1.8289150179600440e-04  1.8238382421260484e-04  1.8191847315786739e-04  1.8151277297405739e-04  1.8117739753065017e-04  1.8091842247037690e-04  1.8073903289753262e-04  1.8064075943758756e-04  1.8062424633037214e-04  1.8068963069964937e-04  1.8083660752335313e-04  1.8106419333499329e-04  1.8137013002234910e-04  1.8174983860945275e-04  1.8219487847068568e-04  1.8269098626903576e-04  1.8321588824177196e-04  1.8373713732907460e-04  1.8421024275283601e-04  1.8457750926530631e-04  1.8476832883108346e-04  1.8470195156855903e-04  1.8429362480380470e-04  1.8346370804791582e-04  1.8215133672818366e-04  1.8033683138697217e-04  1.7807532740985414e-04  1.7553256935932135e-04  1.7298502418870335e-04  1.7076950847581994e-04  1.6917732098428788e-04  1.6829448223471851e-04  1.6794760100277982e-04  5.0351145582704603e-04  1.6798910716726124e-04  8.4148353373360665e-05  8.4754632872875845e-05  8.6102566797178795e-05  8.8320819999064101e-05  9.1268351591849894e-05  9.4599968389461509e-05  9.7904812729881593e-05  1.0083249277853036e-04  1.0316408254025935e-04  1.0481420038577295e-04  1.0579815397356519e-04  1.0619736149597400e-04  1.0612959863285718e-04  1.0572330260137255e-04  1.0509865285412851e-04  1.0435724021436316e-04  1.0357874861835790e-04  1.0282178416758180e-04  1.0212669764323160e-04  1.0151924413836285e-04  1.0101443548714466e-04  1.0062009888565144e-04  1.0033977449732080e-04  1.0017478486206926e-04  1.0012551902327113e-04  1.0019209242837751e-04  1.0037453550310170e-04  1.0067256244688802e-04  1.0108484107738512e-04  1.0160759504464015e-04  1.0223238568332345e-04  1.0294306334510056e-04  1.0371209066330981e-04  1.0449660203721843e-04  1.0523465360841719e-04  1.0584249972728903e-04  1.0621445948324046e-04  1.0622804636733480e-04  1.0575606162899555e-04  1.0468525894797875e-04  1.0294077039074375e-04  1.0051871972006194e-04  9.7521650154506570e-05  9.4191257519268530e-05  9.0889197658810140e-05  8.8011902220839428e-05  8.5889371258756868e-05  8.4646197827194448e-05  8.4112792718808412e-05  1.6792781717545123e-04  1.6817645617386054e-04  8.4339369712549129e-05  8.5126463583046013e-05  8.6844880396356834e-05  8.9615614114856219e-05  9.3242715705383833e-05  9.7322267162375679e-05  1.0136526568382840e-04  1.0494524962078797e-04  1.0779492690198243e-04  1.0980347217007144e-04  1.1097855945474282e-04  1.1141469424952110e-04  1.1126016121583277e-04  1.1068106701724243e-04  1.0983327895858420e-04  1.0884768364067738e-04  1.0782590718793521e-04  1.0684165307607463e-04  1.0594455934959229e-04  1.0516516663638320e-04  1.0452021100846996e-04  1.0401752565099684e-04  1.0365996472864665e-04  1.0344810308828327e-04  1.0338182504764819e-04  1.0346109948316891e-04  1.0368620747645081e-04  1.0405751362762530e-04  1.0457465264263222e-04  1.0523484012682675e-04  1.0603001766434353e-04  1.0694276523662410e-04  1.0794131874900862e-04  1.0897420223955176e-04  1.0996500659249051e-04  1.1080836038061742e-04  1.1136905218903198e-04  1.1148892851455181e-04  1.1100321871058326e-04  1.0976985681228807e-04  1.0769766678230183e-04  1.0478405417484486e-04  1.0114491260381160e-04  9.7069943369215876e-05  9.3008597449517825e-05  8.9415819256660609e-05  8.6678826879936957e-05  8.5019528380026805e-05  8.4295829608897941e-05  1.6806313924567836e-04  1.6835885492275004e-04  8.4613894187878647e-05  8.5714178326765775e-05  8.7867629166023023e-05  9.1027378187329117e-05  9.4909205468765600e-05  9.9119385004560822e-05  1.0315335179562355e-04  1.0660796130681194e-04  1.0928319244165669e-04  1.1110928494574248e-04  1.1210243030669184e-04  1.1236053939118279e-04  1.1203940335637921e-04  1.1131194628801014e-04  1.1033688235915377e-04  1.0924507476634600e-04  1.0813707328815054e-04  1.0708509639720377e-04  1.0613675346325435e-04  1.0531994505174708e-04  1.0464849730970403e-04  1.0412760420743670e-04  1.0375813826796659e-04  1.0353943472536396e-04  1.0347075164691937e-04  1.0355188302164117e-04  1.0378333058261364e-04  1.0416616923920390e-04  1.0470141535901289e-04  1.0538845087259826e-04  1.0622203251402983e-04  1.0718776731683339e-04  1.0825666275510073e-04  1.0937950258543982e-04  1.1048178432857679e-04  1.1145923713211405e-04  1.1217520905418151e-04  1.1246642277646284e-04  1.1216182006060288e-04  1.1112339225918490e-04  1.0924817440791080e-04  1.0651258909248939e-04  1.0298504734801313e-04  9.8886853254004264e-05  9.4689950149981671e-05  9.0827621805905827e-05  8.7648744403315612e-05  8.5516607167182619e-05  8.4514141170896571e-05  1.6825334336830755e-04  1.6832578268397437e-04  8.4954556324286213e-05  8.6898279336166374e-05  8.9995704078923481e-05  9.3666626765667165e-05  9.7704007881314943e-05  1.0192954927941807e-04  1.0574004077961147e-04  1.0882031572284174e-04  1.1112103852548308e-04  1.1261196095284273e-04  1.1329595614234873e-04  1.1326800389188493e-04  1.1269469267916112e-04  1.1175615962638328e-04  1.1061005953861288e-04  1.0938255112770842e-04  1.0816961318285120e-04  1.0703958232611200e-04  1.0603600975109937e-04  1.0518207216086726e-04  1.0448666760670443e-04  1.0395074112347374e-04  1.0357216680481893e-04  1.0334854374809355e-04  1.0327832243764486e-04  1.0336107593540608e-04  1.0359755449766201e-04  1.0398972857665610e-04  1.0454053225212474e-04  1.0525259540812478e-04  1.0612514101865379e-04  1.0714875950943077e-04  1.0829909891534940e-04  1.0953133550115216e-04  1.1077591599873920e-04  1.1193249944607481e-04  1.1286664454297844e-04  1.1341196913121448e-04  1.1339657528269898e-04  1.1267866549346084e-04  1.1114830374129497e-04  1.0879493763852318e-04  1.0568246126038732e-04  1.0173733607966599e-04  9.7530729116620428e-05  9.3573041406152954e-05  8.9790631675122574e-05  8.6582623071134867e-05  8.4699044445352072e-05  1.6832414440370614e-04  1.6837047952366306e-04  8.5873971183090826e-05  9.1708344440640272e-05  9.9813792102159866e-05  1.0377385660851901e-04  1.0544290414987286e-04  1.0754053437215340e-04  1.0984853446259072e-04  1.1194396132528558e-04  1.1360617095760671e-04  1.1462414314749785e-04  1.1487806060763506e-04  1.1444939239542807e-04  1.1352843366855742e-04  1.1230599467661446e-04  1.1093369437736190e-04  1.0952809970765824e-04  1.0817825409637761e-04  1.0694759171822486e-04  1.0587442224535347e-04  1.0497520787759031e-04  1.0425158467047766e-04  1.0369836712717059e-04  1.0330936974579512e-04  1.0308007327144537e-04  1.0300806958738376e-04  1.0309271049719853e-04  1.0333495414648868e-04  1.0373771695741756e-04  1.0430630067790318e-04  1.0504777671756875e-04  1.0596784195384487e-04  1.0706439757876440e-04  1.0831936297395562e-04  1.0969398348591580e-04  1.1112450626579425e-04  1.1251810388734886e-04  1.1375302500809052e-04  1.1465038665122737e-04  1.1502610646576113e-04  1.1470556864199679e-04  1.1384379801060195e-04  1.1234509241072791e-04  1.1079238822665875e-04  1.0885769525099499e-04  1.0736372791234906e-04  1.0516114083226069e-04  9.7490946674288619e-05  8.9310181469868141e-05  8.4990157758164033e-05  1.6818098427436203e-04  1.7434194616519662e-04  9.2864030859903904e-05  1.2724557852067712e-04  2.2267527150839886e-04  2.8816595711157457e-04  2.0456538281390176e-04  1.4700337335550023e-04  1.2348713335980709e-04  1.1735741900949188e-04  1.1702234591350532e-04  1.1725466362755688e-04  1.1691136997472685e-04  1.1593482206362214e-04  1.1455445812149950e-04  1.1297140299630114e-04  1.1131677700211035e-04  1.0968954739647735e-04  1.0816959724065964e-04  1.0681542070289804e-04  1.0565938494526166e-04  1.0470869087124892e-04  1.0395443093728046e-04  1.0338284895717460e-04  1.0298262854471982e-04  1.0274702604573090e-04  1.0267299028976311e-04  1.0275974101511049e-04  1.0300827187407675e-04  1.0342220678019235e-04  1.0400940117444746e-04  1.0478266282927592e-04  1.0575686516844659e-04  1.0694064637581462e-04  1.0832366914795498e-04  1.0987378716738998e-04  1.1153345360831574e-04  1.1323280347647856e-04  1.1486004187781214e-04  1.1620217239897851e-04  1.1713215101665779e-04  1.1750197823767534e-04  1.1831717055054959e-04  1.2026020339760886e-04  1.2961394501837236e-04  1.4969085324188398e-04  1.9528419067261712e-04  2.8457253809620672e-04  2.3454425440296454e-04  1.3490967751760604e-04  9.1217330962913452e-05  1.6888298673878286e-04  1.8947849179462442e-04  2.0579916209922551e-04  2.9853412125808210e-02  5.7497497959612003e-02  5.3553235644440519e-02  3.3884575916522351e-02  1.1295129997892731e-02  3.9996028664771835e-04  1.5524821956421159e-04  1.2565529130870856e-04  1.2111527255280413e-04  1.1953408984247967e-04  1.1774100176366063e-04  1.1576314879949674e-04  1.1374277402928646e-04  1.1175089176997612e-04  1.0985764741762143e-04  1.0813294599668420e-04  1.0663231355787627e-04  1.0538258832358127e-04  1.0437798044553764e-04  1.0359395119070191e-04  1.0300488605118786e-04  1.0259342788922740e-04  1.0235106225176099e-04  1.0227476927477954e-04  1.0236387209653160e-04  1.0261901641199996e-04  1.0304377757714389e-04  1.0364822397944627e-04  1.0445219418558896e-04  1.0548338869841519e-04  1.0676673840467042e-04  1.0830130891036070e-04  1.1005994070730484e-04  1.1199704685419655e-04  1.1406910392980947e-04  1.1615435358297144e-04  1.1822256127239051e-04  1.2015983751331898e-04  1.2246505584791531e-04  1.3267722214709295e-04  1.6112756005444897e-04  3.2152617480117385e-04  8.6761805782391861e-03  2.9725067529655969e-02  5.0573858386248463e-02  5.7980288910944332e-02  4.1639386556325937e-02  2.1174248304492603e-04  1.8832723577127846e-04  4.1349646074684369e-04  9.0028962896519613e-02  2.1014659608995442e-01  2.1453668342350274e-01  1.8085724873766931e-01  1.3328626758555687e-01  8.2858994701766886e-02  3.8545792362843188e-02  6.2726511703602456e-03  2.1819037586504874e-04  1.3635456526828562e-04  1.2382582619637497e-04  1.1997988675431106e-04  1.1714248392327662e-04  1.1461234084758874e-04  1.1222815175531391e-04  1.1002249679082188e-04  1.0805477048445359e-04  1.0638323124736578e-04  1.0503249679842571e-04  1.0397731414882163e-04  1.0316895409680224e-04  1.0256552577430165e-04  1.0214333661530211e-04  1.0189360862490443e-04  1.0181475071174895e-04  1.0190664198163439e-04  1.0216888625632166e-04  1.0260340256622278e-04  1.0322117662454482e-04  1.0404976077894228e-04  1.0513481886567657e-04  1.0652811315681571e-04  1.0824329059305145e-04  1.1024121191892686e-04  1.1250728495888709e-04  1.1498151145903963e-04  1.1778883111557510e-04  1.2131483456989622e-04  1.2670548407939196e-04  1.4311060077950357e-04  2.1656453393408849e-04  3.0216830174567069e-03  3.1648672574486940e-02  7.6826517767768748e-02  1.2893609860702268e-01  1.7602242543061350e-01  2.0878402272581223e-01  2.0807167806561458e-01  1.1439150234830484e-01  3.0527005779181258e-04  4.0261245493285636e-01  4.6459571293099705e-01  4.9596795884748063e-01  4.2340183315674318e-01  3.5535680256255264e-01  2.7537441767338505e-01  1.9442912328772460e-01  1.2056974510219916e-01  6.0598554284129226e-02  1.7596577318070239e-02  3.8451140823947898e-04  1.4979261628295505e-04  1.2448382388044737e-04  1.1890880258555382e-04  1.1561966573980522e-04  1.1275012687360467e-04  1.1017888578127201e-04  1.0792075341986131e-04  1.0604807699857611e-04  1.0459449431064268e-04  1.0350124053299916e-04  1.0268017022704769e-04  1.0206766031239769e-04  1.0163500840719342e-04  1.0137653186929790e-04  1.0129451460425028e-04  1.0139014583058974e-04  1.0166090428592270e-04  1.0210416025284570e-04  1.0272873825539544e-04  1.0356888611040679e-04  1.0469639349548819e-04  1.0620543918646049e-04  1.0814551032845639e-04  1.1039899349256882e-04  1.1311013492115322e-04  1.1610077223749490e-04  1.2051555975549291e-04  1.3044496603657228e-04  1.5635129027498330e-04  3.1648595901955006e-04  1.3209049144020279e-02  5.4260337790376312e-02  1.1687257126800667e-01  1.9042523494902502e-01  2.7116636579292114e-01  3.5134455901018191e-01  4.1805444827581351e-01  4.4872316663515316e-01  4.7024794808497911e-01  3.5727629048475823e-01  9.9898909738421282e-01  9.8574672187647272e-01  7.8740290469969165e-01  6.6355744220036039e-01  5.5711560688711481e-01  4.4365802527991416e-01  3.3605159342269086e-01  2.3560182117408443e-01  1.4775113491973216e-01  7.7603593753158034e-02  2.8232631523732146e-02  1.3655144889732789e-03  1.6797939692286490e-04  1.2551757310633286e-04  1.1742152304584278e-04  1.1342083475745617e-04  1.1036284911137980e-04  1.0772846739310601e-04  1.0560272327302159e-04  1.0405367679072591e-04  1.0294892100848250e-04  1.0213407472028498e-04  1.0151878235174787e-04  1.0107401369193975e-04  1.0080356392605340e-04  1.0071729720419079e-04  1.0081864258651285e-04  1.0110159329239880e-04  1.0155439464499509e-04  1.0217755692194051e-04  1.0300874954148457e-04  1.0415544425244143e-04  1.0577253543957557e-04  1.0805913691769237e-04  1.1063864874371609e-04  1.1413490208892765e-04  1.1881169598680952e-04  1.3355090199279544e-04  1.7601408790476696e-04  6.3797465790088441e-04  2.2214517531432734e-02  7.2667566303198997e-02  1.4468051021292361e-01  2.3184980029452085e-01  3.3244305502317317e-01  4.4202576651959524e-01  5.4452980453306221e-01  6.5604533481343119e-01  8.0581812041177270e-01  9.9471784014122044e-01  9.9723332739629211e-01  9.9979310510229968e-01  9.9981978238998159e-01  9.9936496872750724e-01  9.0602926606152423e-01  7.4457380710445076e-01  6.1558845641754445e-01  4.8924243840252990e-01  3.6967787415331049e-01  2.6069623549518761e-01  1.6690424868246348e-01  9.2281119535896655e-02  3.9448765231881858e-02  6.3202501386101671e-03  2.1805064855152532e-04  1.3254140713648329e-04  1.1635453160435313e-04  1.1121681624296716e-04  1.0769250539108702e-04  1.0511661904607803e-04  1.0346301110266625e-04  1.0237308936450523e-04  1.0157945273633011e-04  1.0096024247647626e-04  1.0049396472782539e-04  1.0020380317967418e-04  1.0011120740621688e-04  1.0022265433595996e-04  1.0052898970836020e-04  1.0100363076111445e-04  1.0162943494114825e-04  1.0244532030651865e-04  1.0360074365696199e-04  1.0536197673974998e-04  1.0839917612894326e-04  1.1203588201300672e-04  1.2021316920194373e-04  1.3963653351343564e-04  2.1384501491150427e-04  3.8795116827103353e-03  3.3785183482949982e-02  8.8492421990703896e-02  1.6402865533851768e-01  2.5792259953970664e-01  3.6727317041392826e-01  4.8872735405196749e-01  6.1007471634774868e-01  7.4138919731873232e-01  9.3912085662788447e-01  9.9957608711369439e-01  9.9983923234261429e-01  9.9971769211107664e-01  9.9986313307350860e-01  9.9990890103114394e-01  9.9981778022322398e-01  9.9930553751910622e-01  9.1086026445627943e-01  7.6756892489629447e-01  6.3662997943462074e-01  5.0882857962107886e-01  3.8753151530922403e-01  2.7737891974568385e-01  1.8314389276368642e-01  1.0780941844959803e-01  5.2953684721185210e-02  1.6964911117029777e-02  5.4113479229805483e-04  1.6968404675691447e-04  1.2602705433497550e-04  1.1241811329153161e-04  1.0687333885650997e-04  1.0423068415817320e-04  1.0272704664384565e-04  1.0171926539977608e-04  1.0095748857115298e-04  1.0038798006069174e-04  1.0003954664172582e-04  9.9933952538515925e-05  1.0007779433808811e-04  1.0046933350070569e-04  1.0108033362634846e-04  1.0190273213832952e-04  1.0304715277326101e-04  1.0484085149253748e-04  1.0812599318777109e-04  1.1646774245045696e-04  1.3144997199774779e-04  1.6796665241536606e-04  4.2224508292861219e-04  1.2276527673265670e-02  4.8291113352710462e-02  1.0547923351033035e-01  1.8049697839293599e-01  2.7526769983827237e-01  3.8614256612447795e-01  5.0885011868525643e-01  6.3643611359549279e-01  7.6486907557704209e-01  9.3832832149423973e-01  9.9945617485195937e-01  9.9982312862429035e-01  9.9990875856429817e-01  9.9985234270298973e-01  9.9985514425034105e-01  9.9991575519711728e-01  9.9986053373022465e-01  9.9968318861164318e-01  9.9803964705643611e-01  8.8347556163685204e-01  7.6311637337633598e-01  6.3885858586518451e-01  5.1602582940939290e-01  3.9883274396088614e-01  2.9260810364815115e-01  2.0184702409565758e-01  1.2885918811107619e-01  7.4305507360927781e-02  3.6945790082923674e-02  1.2265429314712684e-02  7.5080264007042425e-04  2.2192350466726331e-04  1.5571324318918226e-04  1.3461775661793705e-04  1.2445232681542324e-04  1.1872863241834674e-04  1.1520996989702489e-04  1.1309028012812564e-04  1.1201157423740557e-04  1.1175066278272282e-04  1.1224208105922273e-04  1.1356874310564369e-04  1.1584710898383302e-04  1.1938577290535434e-04  1.2508909380244205e-04  1.3497381748757810e-04  1.5486338498431885e-04  2.1455771208469374e-04  6.1993207604636117e-04  9.2867945191821687e-03  3.2179732318874985e-02  7.1310984345461181e-02  1.2700356995679665e-01  1.9979797545257635e-01  2.9109419562077826e-01  3.9835031505086127e-01  5.1639595465483046e-01  6.4079289361541847e-01  7.6261578165221433e-01  8.9707846010058268e-01  9.9857337093319865e-01  9.9968098337275801e-01  9.9985559790066703e-01  9.9991363872105155e-01  9.9986383225828845e-01  9.9973636096668828e-01  9.9987388377850617e-01  9.9981660199252309e-01  9.9967073816386087e-01  9.9904419442718939e-01  9.6012223274452702e-01  8.5544676169267064e-01  7.4853128223667209e-01  6.3474845283517889e-01  5.2047081115252392e-01  4.1157651141130447e-01  3.1330795059364058e-01  2.2957748943794598e-01  1.6213464199765312e-01  1.1055700162883815e-01  7.3228086884547114e-02  4.7551071227818167e-02  2.9520984030032026e-02  1.7051466159373699e-02  1.0179078028710046e-02  5.5141814087545839e-03  2.9321984131114574e-03  1.6655335537664039e-03  1.1163638390014085e-03  9.0544873155569807e-04  8.4812363204680443e-04  8.9574280162028213e-04  1.0881035153477519e-03  1.5837237511228310e-03  2.7222617439695809e-03  5.1828046141534374e-03  9.4529644851805150e-03  1.5775928232482622e-02  2.6411909177467656e-02  4.4226762812993148e-02  7.1306406812977119e-02  1.0939065021433289e-01  1.6076847999866375e-01  2.2819256612006897e-01  3.1265145732478372e-01  4.1175323955365439e-01  5.2145719786058065e-01  6.3673347030446004e-01  7.5159416854653327e-01  8.5971318229033211e-01  9.6872342631173591e-01  9.9900070321811596e-01  9.9963668356863400e-01  9.9980079849568637e-01  9.9986569476556542e-01  9.9980115752381571e-01  9.9736189755138427e-01  9.9943725522976268e-01  9.9940379539382240e-01  9.9918316444668687e-01  9.9827869528112012e-01  9.7827437743193635e-01  9.0832788173254830e-01  8.2931619424805825e-01  7.3424320620331973e-01  6.3243497943890759e-01  5.3011738172246514e-01  4.3347049065947740e-01  3.4727184373605990e-01  2.7450466683559688e-01  2.1612485843993262e-01  1.7119333579240667e-01  1.3767912605993221e-01  1.1350407190140521e-01  9.6651438996170583e-02  8.4948272289179463e-02  7.6639092430987724e-02  7.0911183021209592e-02  6.7107188050034544e-02  6.4638308435020539e-02  6.3190921805740347e-02  6.2669326903757205e-02  6.3012828492688550e-02  6.4281064456455553e-02  6.6653026538625620e-02  7.0375427048593300e-02  7.5987732824332771e-02  8.4254377757410556e-02  9.6160335183644446e-02  1.1333934517827121e-01  1.3759859511000996e-01  1.7062836549591495e-01  2.1526165012939863e-01  2.7409817733802305e-01  3.4753225767808865e-01  4.3433922773394917e-01  5.3160269536909410e-01  6.3477288315880986e-01  7.3769846259340288e-01  8.3344987343234489e-01  9.1609655439475013e-01  9.7842349482362279e-01  9.9790340454092541e-01  9.9907357695588928e-01  9.9940287127034910e-01  9.9951183579846614e-01  9.9921259962524367e-01  3.3954709228417340e-01  6.4740751029616694e-01  8.0576159445339146e-01  9.0090363056275935e-01  9.4061088037669682e-01  9.4390982774545829e-01  9.2171993085251336e-01  8.7562720619535384e-01  8.0753489645647902e-01  7.2646856117699654e-01  6.3926259277452990e-01  5.5294359720579711e-01  4.730884800