<?xml version="1.0"?>
<VTKFile type="UnstructuredGrid"  version="0.1"  >
<UnstructuredGrid>
<Piece  NumberOfPoints="2601" NumberOfCells="5000">
<Points>
<DataArray  type="Float64"  NumberOfComponents="3"  format="ascii">0 0 0  0.03 0 0  0.06 0 0  0.09 0 0  0.12 0 0  0.15 0 0  0.18 0 0  0.21 0 0  0.24 0 0  0.27 0 0  0.3 0 0  0.33 0 0  0.36 0 0  0.39 0 0  0.42 0 0  0.45 0 0  0.48 0 0  0.51 0 0  0.54 0 0  0.57 0 0  0.6 0 0  0.63 0 0  0.66 0 0  0.6899999999999999 0 0  0.72 0 0  0.75 0 0  0.78 0 0  0.8100000000000001 0 0  0.84 0 0  0.87 0 0  0.9 0 0  0.93 0 0  0.96 0 0  0.99 0 0  1.02 0 0  1.05 0 0  1.08 0 0  1.11 0 0  1.14 0 0  1.17 0 0  1.2 0 0  1.23 0 0  1.26 0 0  1.29 0 0  1.32 0 0  1.35 0 0  1.38 0 0  1.41 0 0  1.44 0 0  1.47 0 0  1.5 0 0  0 0.02 0  0.03 0.02 0  0.06 0.02 0  0.09 0.02 0  0.12 0.02 0  0.15 0.02 0  0.18 0.02 0  0.21 0.02 0  0.24 0.02 0  0.27 0.02 0  0.3 0.02 0  0.33 0.02 0  0.36 0.02 0  0.39 0.02 0  0.42 0.02 0  0.45 0.02 0  0.48 0.02 0  0.51 0.02 0  0.54 0.02 0  0.57 0.02 0  0.6 0.02 0  0.63 0.02 0  0.66 0.02 0  0.6899999999999999 0.02 0  0.72 0.02 0  0.75 0.02 0  0.78 0.02 0  0.8100000000000001 0.02 0  0.84 0.02 0  0.87 0.02 0  0.9 0.02 0  0.93 0.02 0  0.96 0.02 0  0.99 0.02 0  1.02 0.02 0  1.05 0.02 0  1.08 0.02 0  1.11 0.02 0  1.14 0.02 0  1.17 0.02 0  1.2 0.02 0  1.23 0.02 0  1.26 0.02 0  1.29 0.02 0  1.32 0.02 0  1.35 0.02 0  1.38 0.02 0  1.41 0.02 0  1.44 0.02 0  1.47 0.02 0  1.5 0.02 0  0 0.04 0  0.03 0.04 0  0.06 0.04 0  0.09 0.04 0  0.12 0.04 0  0.15 0.04 0  0.18 0.04 0  0.21 0.04 0  0.24 0.04 0  0.27 0.04 0  0.3 0.04 0  0.33 0.04 0  0.36 0.04 0  0.39 0.04 0  0.42 0.04 0  0.45 0.04 0  0.48 0.04 0  0.51 0.04 0  0.54 0.04 0  0.57 0.04 0  0.6 0.04 0  0.63 0.04 0  0.66 0.04 0  0.6899999999999999 0.04 0  0.72 0.04 0  0.75 0.04 0  0.78 0.04 0  0.8100000000000001 0.04 0  0.84 0.04 0  0.87 0.04 0  0.9 0.04 0  0.93 0.04 0  0.96 0.04 0  0.99 0.04 0  1.02 0.04 0  1.05 0.04 0  1.08 0.04 0  1.11 0.04 0  1.14 0.04 0  1.17 0.04 0  1.2 0.04 0  1.23 0.04 0  1.26 0.04 0  1.29 0.04 0  1.32 0.04 0  1.35 0.04 0  1.38 0.04 0  1.41 0.04 0  1.44 0.04 0  1.47 0.04 0  1.5 0.04 0  0 0.06 0  0.03 0.06 0  0.06 0.06 0  0.09 0.06 0  0.12 0.06 0  0.15 0.06 0  0.18 0.06 0  0.21 0.06 0  0.24 0.06 0  0.27 0.06 0  0.3 0.06 0  0.33 0.06 0  0.36 0.06 0  0.39 0.06 0  0.42 0.06 0  0.45 0.06 0  0.48 0.06 0  0.51 0.06 0  0.54 0.06 0  0.57 0.06 0  0.6 0.06 0  0.63 0.06 0  0.66 0.06 0  0.6899999999999999 0.06 0  0.72 0.06 0  0.75 0.06 0  0.78 0.06 0  0.8100000000000001 0.06 0  0.84 0.06 0  0.87 0.06 0  0.9 0.06 0  0.93 0.06 0  0.96 0.06 0  0.99 0.06 0  1.02 0.06 0  1.05 0.06 0  1.08 0.06 0  1.11 0.06 0  1.14 0.06 0  1.17 0.06 0  1.2 0.06 0  1.23 0.06 0  1.26 0.06 0  1.29 0.06 0  1.32 0.06 0  1.35 0.06 0  1.38 0.06 0  1.41 0.06 0  1.44 0.06 0  1.47 0.06 0  1.5 0.06 0  0 0.08 0  0.03 0.08 0  0.06 0.08 0  0.09 0.08 0  0.12 0.08 0  0.15 0.08 0  0.18 0.08 0  0.21 0.08 0  0.24 0.08 0  0.27 0.08 0  0.3 0.08 0  0.33 0.08 0  0.36 0.08 0  0.39 0.08 0  0.42 0.08 0  0.45 0.08 0  0.48 0.08 0  0.51 0.08 0  0.54 0.08 0  0.57 0.08 0  0.6 0.08 0  0.63 0.08 0  0.66 0.08 0  0.6899999999999999 0.08 0  0.72 0.08 0  0.75 0.08 0  0.78 0.08 0  0.8100000000000001 0.08 0  0.84 0.08 0  0.87 0.08 0  0.9 0.08 0  0.93 0.08 0  0.96 0.08 0  0.99 0.08 0  1.02 0.08 0  1.05 0.08 0  1.08 0.08 0  1.11 0.08 0  1.14 0.08 0  1.17 0.08 0  1.2 0.08 0  1.23 0.08 0  1.26 0.08 0  1.29 0.08 0  1.32 0.08 0  1.35 0.08 0  1.38 0.08 0  1.41 0.08 0  1.44 0.08 0  1.47 0.08 0  1.5 0.08 0  0 0.1 0  0.03 0.1 0  0.06 0.1 0  0.09 0.1 0  0.12 0.1 0  0.15 0.1 0  0.18 0.1 0  0.21 0.1 0  0.24 0.1 0  0.27 0.1 0  0.3 0.1 0  0.33 0.1 0  0.36 0.1 0  0.39 0.1 0  0.42 0.1 0  0.45 0.1 0  0.48 0.1 0  0.51 0.1 0  0.54 0.1 0  0.57 0.1 0  0.6 0.1 0  0.63 0.1 0  0.66 0.1 0  0.6899999999999999 0.1 0  0.72 0.1 0  0.75 0.1 0  0.78 0.1 0  0.8100000000000001 0.1 0  0.84 0.1 0  0.87 0.1 0  0.9 0.1 0  0.93 0.1 0  0.96 0.1 0  0.99 0.1 0  1.02 0.1 0  1.05 0.1 0  1.08 0.1 0  1.11 0.1 0  1.14 0.1 0  1.17 0.1 0  1.2 0.1 0  1.23 0.1 0  1.26 0.1 0  1.29 0.1 0  1.32 0.1 0  1.35 0.1 0  1.38 0.1 0  1.41 0.1 0  1.44 0.1 0  1.47 0.1 0  1.5 0.1 0  0 0.12 0  0.03 0.12 0  0.06 0.12 0  0.09 0.12 0  0.12 0.12 0  0.15 0.12 0  0.18 0.12 0  0.21 0.12 0  0.24 0.12 0  0.27 0.12 0  0.3 0.12 0  0.33 0.12 0  0.36 0.12 0  0.39 0.12 0  0.42 0.12 0  0.45 0.12 0  0.48 0.12 0  0.51 0.12 0  0.54 0.12 0  0.57 0.12 0  0.6 0.12 0  0.63 0.12 0  0.66 0.12 0  0.6899999999999999 0.12 0  0.72 0.12 0  0.75 0.12 0  0.78 0.12 0  0.8100000000000001 0.12 0  0.84 0.12 0  0.87 0.12 0  0.9 0.12 0  0.93 0.12 0  0.96 0.12 0  0.99 0.12 0  1.02 0.12 0  1.05 0.12 0  1.08 0.12 0  1.11 0.12 0  1.14 0.12 0  1.17 0.12 0  1.2 0.12 0  1.23 0.12 0  1.26 0.12 0  1.29 0.12 0  1.32 0.12 0  1.35 0.12 0  1.38 0.12 0  1.41 0.12 0  1.44 0.12 0  1.47 0.12 0  1.5 0.12 0  0 0.14 0  0.03 0.14 0  0.06 0.14 0  0.09 0.14 0  0.12 0.14 0  0.15 0.14 0  0.18 0.14 0  0.21 0.14 0  0.24 0.14 0  0.27 0.14 0  0.3 0.14 0  0.33 0.14 0  0.36 0.14 0  0.39 0.14 0  0.42 0.14 0  0.45 0.14 0  0.48 0.14 0  0.51 0.14 0  0.54 0.14 0  0.57 0.14 0  0.6 0.14 0  0.63 0.14 0  0.66 0.14 0  0.6899999999999999 0.14 0  0.72 0.14 0  0.75 0.14 0  0.78 0.14 0  0.8100000000000001 0.14 0  0.84 0.14 0  0.87 0.14 0  0.9 0.14 0  0.93 0.14 0  0.96 0.14 0  0.99 0.14 0  1.02 0.14 0  1.05 0.14 0  1.08 0.14 0  1.11 0.14 0  1.14 0.14 0  1.17 0.14 0  1.2 0.14 0  1.23 0.14 0  1.26 0.14 0  1.29 0.14 0  1.32 0.14 0  1.35 0.14 0  1.38 0.14 0  1.41 0.14 0  1.44 0.14 0  1.47 0.14 0  1.5 0.14 0  0 0.16 0  0.03 0.16 0  0.06 0.16 0  0.09 0.16 0  0.12 0.16 0  0.15 0.16 0  0.18 0.16 0  0.21 0.16 0  0.24 0.16 0  0.27 0.16 0  0.3 0.16 0  0.33 0.16 0  0.36 0.16 0  0.39 0.16 0  0.42 0.16 0  0.45 0.16 0  0.48 0.16 0  0.51 0.16 0  0.54 0.16 0  0.57 0.16 0  0.6 0.16 0  0.63 0.16 0  0.66 0.16 0  0.6899999999999999 0.16 0  0.72 0.16 0  0.75 0.16 0  0.78 0.16 0  0.8100000000000001 0.16 0  0.84 0.16 0  0.87 0.16 0  0.9 0.16 0  0.93 0.16 0  0.96 0.16 0  0.99 0.16 0  1.02 0.16 0  1.05 0.16 0  1.08 0.16 0  1.11 0.16 0  1.14 0.16 0  1.17 0.16 0  1.2 0.16 0  1.23 0.16 0  1.26 0.16 0  1.29 0.16 0  1.32 0.16 0  1.35 0.16 0  1.38 0.16 0  1.41 0.16 0  1.44 0.16 0  1.47 0.16 0  1.5 0.16 0  0 0.18 0  0.03 0.18 0  0.06 0.18 0  0.09 0.18 0  0.12 0.18 0  0.15 0.18 0  0.18 0.18 0  0.21 0.18 0  0.24 0.18 0  0.27 0.18 0  0.3 0.18 0  0.33 0.18 0  0.36 0.18 0  0.39 0.18 0  0.42 0.18 0  0.45 0.18 0  0.48 0.18 0  0.51 0.18 0  0.54 0.18 0  0.57 0.18 0  0.6 0.18 0  0.63 0.18 0  0.66 0.18 0  0.6899999999999999 0.18 0  0.72 0.18 0  0.75 0.18 0  0.78 0.18 0  0.8100000000000001 0.18 0  0.84 0.18 0  0.87 0.18 0  0.9 0.18 0  0.93 0.18 0  0.96 0.18 0  0.99 0.18 0  1.02 0.18 0  1.05 0.18 0  1.08 0.18 0  1.11 0.18 0  1.14 0.18 0  1.17 0.18 0  1.2 0.18 0  1.23 0.18 0  1.26 0.18 0  1.29 0.18 0  1.32 0.18 0  1.35 0.18 0  1.38 0.18 0  1.41 0.18 0  1.44 0.18 0  1.47 0.18 0  1.5 0.18 0  0 0.2 0  0.03 0.2 0  0.06 0.2 0  0.09 0.2 0  0.12 0.2 0  0.15 0.2 0  0.18 0.2 0  0.21 0.2 0  0.24 0.2 0  0.27 0.2 0  0.3 0.2 0  0.33 0.2 0  0.36 0.2 0  0.39 0.2 0  0.42 0.2 0  0.45 0.2 0  0.48 0.2 0  0.51 0.2 0  0.54 0.2 0  0.57 0.2 0  0.6 0.2 0  0.63 0.2 0  0.66 0.2 0  0.6899999999999999 0.2 0  0.72 0.2 0  0.75 0.2 0  0.78 0.2 0  0.8100000000000001 0.2 0  0.84 0.2 0  0.87 0.2 0  0.9 0.2 0  0.93 0.2 0  0.96 0.2 0  0.99 0.2 0  1.02 0.2 0  1.05 0.2 0  1.08 0.2 0  1.11 0.2 0  1.14 0.2 0  1.17 0.2 0  1.2 0.2 0  1.23 0.2 0  1.26 0.2 0  1.29 0.2 0  1.32 0.2 0  1.35 0.2 0  1.38 0.2 0  1.41 0.2 0  1.44 0.2 0  1.47 0.2 0  1.5 0.2 0  0 0.22 0  0.03 0.22 0  0.06 0.22 0  0.09 0.22 0  0.12 0.22 0  0.15 0.22 0  0.18 0.22 0  0.21 0.22 0  0.24 0.22 0  0.27 0.22 0  0.3 0.22 0  0.33 0.22 0  0.36 0.22 0  0.39 0.22 0  0.42 0.22 0  0.45 0.22 0  0.48 0.22 0  0.51 0.22 0  0.54 0.22 0  0.57 0.22 0  0.6 0.22 0  0.63 0.22 0  0.66 0.22 0  0.6899999999999999 0.22 0  0.72 0.22 0  0.75 0.22 0  0.78 0.22 0  0.8100000000000001 0.22 0  0.84 0.22 0  0.87 0.22 0  0.9 0.22 0  0.93 0.22 0  0.96 0.22 0  0.99 0.22 0  1.02 0.22 0  1.05 0.22 0  1.08 0.22 0  1.11 0.22 0  1.14 0.22 0  1.17 0.22 0  1.2 0.22 0  1.23 0.22 0  1.26 0.22 0  1.29 0.22 0  1.32 0.22 0  1.35 0.22 0  1.38 0.22 0  1.41 0.22 0  1.44 0.22 0  1.47 0.22 0  1.5 0.22 0  0 0.24 0  0.03 0.24 0  0.06 0.24 0  0.09 0.24 0  0.12 0.24 0  0.15 0.24 0  0.18 0.24 0  0.21 0.24 0  0.24 0.24 0  0.27 0.24 0  0.3 0.24 0  0.33 0.24 0  0.36 0.24 0  0.39 0.24 0  0.42 0.24 0  0.45 0.24 0  0.48 0.24 0  0.51 0.24 0  0.54 0.24 0  0.57 0.24 0  0.6 0.24 0  0.63 0.24 0  0.66 0.24 0  0.6899999999999999 0.24 0  0.72 0.24 0  0.75 0.24 0  0.78 0.24 0  0.8100000000000001 0.24 0  0.84 0.24 0  0.87 0.24 0  0.9 0.24 0  0.93 0.24 0  0.96 0.24 0  0.99 0.24 0  1.02 0.24 0  1.05 0.24 0  1.08 0.24 0  1.11 0.24 0  1.14 0.24 0  1.17 0.24 0  1.2 0.24 0  1.23 0.24 0  1.26 0.24 0  1.29 0.24 0  1.32 0.24 0  1.35 0.24 0  1.38 0.24 0  1.41 0.24 0  1.44 0.24 0  1.47 0.24 0  1.5 0.24 0  0 0.26 0  0.03 0.26 0  0.06 0.26 0  0.09 0.26 0  0.12 0.26 0  0.15 0.26 0  0.18 0.26 0  0.21 0.26 0  0.24 0.26 0  0.27 0.26 0  0.3 0.26 0  0.33 0.26 0  0.36 0.26 0  0.39 0.26 0  0.42 0.26 0  0.45 0.26 0  0.48 0.26 0  0.51 0.26 0  0.54 0.26 0  0.57 0.26 0  0.6 0.26 0  0.63 0.26 0  0.66 0.26 0  0.6899999999999999 0.26 0  0.72 0.26 0  0.75 0.26 0  0.78 0.26 0  0.8100000000000001 0.26 0  0.84 0.26 0  0.87 0.26 0  0.9 0.26 0  0.93 0.26 0  0.96 0.26 0  0.99 0.26 0  1.02 0.26 0  1.05 0.26 0  1.08 0.26 0  1.11 0.26 0  1.14 0.26 0  1.17 0.26 0  1.2 0.26 0  1.23 0.26 0  1.26 0.26 0  1.29 0.26 0  1.32 0.26 0  1.35 0.26 0  1.38 0.26 0  1.41 0.26 0  1.44 0.26 0  1.47 0.26 0  1.5 0.26 0  0 0.28 0  0.03 0.28 0  0.06 0.28 0  0.09 0.28 0  0.12 0.28 0  0.15 0.28 0  0.18 0.28 0  0.21 0.28 0  0.24 0.28 0  0.27 0.28 0  0.3 0.28 0  0.33 0.28 0  0.36 0.28 0  0.39 0.28 0  0.42 0.28 0  0.45 0.28 0  0.48 0.28 0  0.51 0.28 0  0.54 0.28 0  0.57 0.28 0  0.6 0.28 0  0.63 0.28 0  0.66 0.28 0  0.6899999999999999 0.28 0  0.72 0.28 0  0.75 0.28 0  0.78 0.28 0  0.8100000000000001 0.28 0  0.84 0.28 0  0.87 0.28 0  0.9 0.28 0  0.93 0.28 0  0.96 0.28 0  0.99 0.28 0  1.02 0.28
[...]
<PointData  Scalars="ControlVisualisation"> 
<DataArray  type="Float64"  Name="ControlVisualisation"  format="ascii">7.7357337472519688e-02  5.2869133374014499e-02  5.2950138226766891e-02  5.3126441243129166e-02  5.3398508331940972e-02  5.3724823411078024e-02  5.4056883413147683e-02  5.4368893481459929e-02  5.4658193294613008e-02  5.4928285577097558e-02  5.5172873808186230e-02  5.5375091756052083e-02  5.5521763070918384e-02  5.5615521936853235e-02  5.5672117420647399e-02  5.5709289513947179e-02  5.5739136642347364e-02  5.5767205903874587e-02  5.5794934489154055e-02  5.5822050504340470e-02  5.5847759563300847e-02  5.5871038144727644e-02  5.5890684453878105e-02  5.5905451848191214e-02  5.5914246116199370e-02  5.5916289489875544e-02  5.5911231735339462e-02  5.5899238744785466e-02  5.5881058433467856e-02  5.5858008123089067e-02  5.5831830644990185e-02  5.5804451565992841e-02  5.5777713902832149e-02  5.5752975520429821e-02  5.5730044648641064e-02  5.5704775215454250e-02  5.5665768021647043e-02  5.5593641327784812e-02  5.5468140377780209e-02  5.5281866792725842e-02  5.5047053456836567e-02  5.4784174860670540e-02  5.4503436181665359e-02  5.4200566319706309e-02  5.3871746798519575e-02  5.3533572324611554e-02  5.3229840088597775e-02  5.3010573404891966e-02  5.2893753076810254e-02  5.2851791081663213e-02  1.5275918770875518e-01  5.2859035307551025e-02  2.7423019312226342e-02  2.7608027971663302e-02  2.8032229370853555e-02  2.8726691939935482e-02  2.9606972577335619e-02  3.0541388961015565e-02  3.1441926777227014e-02  3.2290343130751215e-02  3.3100570538410104e-02  3.3863914490373591e-02  3.4529378026465399e-02  3.5040876975696661e-02  3.5387677223328091e-02  3.5609410929474505e-02  3.5760883122107248e-02  3.5881529716511262e-02  3.5989170203910487e-02  3.6087946137912406e-02  3.6177078294215979e-02  3.6255304305315671e-02  3.6321765946551496e-02  3.6375635594420461e-02  3.6415865326431839e-02  3.6441253060138380e-02  3.6450597063857684e-02  3.6442856741766561e-02  3.6417397414605021e-02  3.6374339258523687e-02  3.6314862972596007e-02  3.6241283094907990e-02  3.6156911532060743e-02  3.6065912123080059e-02  3.5972869105588855e-02  3.5880449016094190e-02  3.5782405715608132e-02  3.5651626831004618e-02  3.5433106608669968e-02  3.5062059928763240e-02  3.4509518395648489e-02  3.3810694541249089e-02  3.3032035004456145e-02  3.2210983800610132e-02  3.1338937101326195e-02  3.0403140517862467e-02  2.9443786981728975e-02  2.8573486196365627e-02  2.7925385600875229e-02  2.7556556966495949e-02  2.7404871917343185e-02  5.2850300517320328e-02  5.2885259029205642e-02  2.7494812592652691e-02  2.7837980739390894e-02  2.8636534997199831e-02  2.9996826492894549e-02  3.1777215436105503e-02  3.3690939936123453e-02  3.5504231869775575e-02  3.7154913584582894e-02  3.8700447574879129e-02  4.0158623148821591e-02  4.1418421576466989e-02  4.2337609719896342e-02  4.2898230865458006e-02  4.3214485926119726e-02  4.3422743708482661e-02  4.3605288305296544e-02  4.3788410783923586e-02  4.3970081804341962e-02  4.4141713542407576e-02  4.4296639412133847e-02  4.4430555514074592e-02  4.4540082264773476e-02  4.4622150773287420e-02  4.4674057840551520e-02  4.4693510280551386e-02  4.4678634928215472e-02  4.4628335034305217e-02  4.4543161572392978e-02  4.4426332996807538e-02  4.4284230218126594e-02  4.4126142954411009e-02  4.3963875433545518e-02  4.3811285387433674e-02  4.3680529460171758e-02  4.3567165146564391e-02  4.3418548163826828e-02  4.3107365390439814e-02  4.2475374273364536e-02  4.1467020876756945e-02  4.0196929064610129e-02  3.8811947726306445e-02  3.7323970943019681e-02  3.5633264383590144e-02  3.3701747666620763e-02  3.1678905199878177e-02  2.9861338183237343e-02  2.8535657847920975e-02  2.7791679202783165e-02  2.7476888762165919e-02  5.2869221802897770e-02  5.2915462221886950e-02  2.7611913363437587e-02  2.8239085388096819e-02  2.9685512522325829e-02  3.2117297635361163e-02  3.5138879845599429e-02  3.8049610890015011e-02  4.0372483987142327e-02  4.2167289363737100e-02  4.3829342205770914e-02  4.5587700518522040e-02  4.7184869490740189e-02  4.8148657740578714e-02  4.8371131641522735e-02  4.8179574284382236e-02  4.7942981052745109e-02  4.7835937555799582e-02  4.7871424125928354e-02  4.8000528376797635e-02  4.8172909001301570e-02  4.8354428849099344e-02  4.8524207246794057e-02  4.8668547241503740e-02  4.8777884386403139e-02  4.8845834072169220e-02  4.8868648645196300e-02  4.8844835692072423e-02  4.8775426423274329e-02  4.8665206181670820e-02  4.8524534485754972e-02  4.8370757584155974e-02  4.8228801834109380e-02  4.8132394144479139e-02  4.8126520265396100e-02  4.8263890190850395e-02  4.8573922354393541e-02  4.8973848990755353e-02  4.9146461912212967e-02  4.8593650948707351e-02  4.7101435064305412e-02  4.5148921337772610e-02  4.3441352264447099e-02  4.2112501568388694e-02  4.0606672056722984e-02  3.8275168537065675e-02  3.5108743221144351e-02  3.1858905502738066e-02  2.9426158045576228e-02  2.8104816758064657e-02  2.7570223549565870e-02  5.2900295749431503e-02  5.2930107299029486e-02  2.7845384246530429e-02  2.9491040833413747e-02  3.3231436614743919e-02  3.8852426064896486e-02  4.4485784790064951e-02  4.8171963268106910e-02  4.9854968567843848e-02  5.0951325978472656e-02  5.2745568341617269e-02  5.5368256011760708e-02  5.7613270823889416e-02  5.8113923541215723e-02  5.6871249225733334e-02  5.4967938786740028e-02  5.3317555312572790e-02  5.2229133322337591e-02  5.1645595261913785e-02  5.1409076912496826e-02  5.1381592596262779e-02  5.1469045142910605e-02  5.1609241237027204e-02  5.1759364814339848e-02  5.1890429859631423e-02  5.1984155174004759e-02  5.2029893308051946e-02  5.2022524971689570e-02  5.1962503727828707e-02  5.1858517569775830e-02  5.1732136542288053e-02  5.1621948844560263e-02  5.1584740559111372e-02  5.1696662883263168e-02  5.2060598569559947e-02  5.2815736452397774e-02  5.4119548746497340e-02  5.6024238972102708e-02  5.8155383594808104e-02  5.9397846256289723e-02  5.8454418473132277e-02  5.5462462590567065e-02  5.2222716866851565e-02  5.0173095931311432e-02  4.9133376536935093e-02  4.7753601592689321e-02  4.4358851326598225e-02  3.8527980404323321e-02  3.2597614348581834e-02  2.9030980856596503e-02  2.7715211257045180e-02  5.2923164323210314e-02  5.2955986010220044e-02  2.8664125241471675e-02  3.4555107374066099e-02  4.6004604918010568e-02  5.8826516785001837e-02  6.6095349528002403e-02  6.7182948208995383e-02  6.6289117748740745e-02  6.5747317949062467e-02  6.6527266735687096e-02  6.9022414328435908e-02  7.1433170571741089e-02  7.1136303930802947e-02  6.7969864292522636e-02  6.3808718756653157e-02  6.0204136843475295e-02  5.7642538190564217e-02  5.6019025573736787e-02  5.5082237939297174e-02  5.4615217890945283e-02  5.4460265084602173e-02  5.4494714771241126e-02  5.4620790118288957e-02  5.4769204983450302e-02  5.4897604757194740e-02  5.4981663698696809e-02  5.5006643784503484e-02  5.4965004566153504e-02  5.4861878648383683e-02  5.4727163867072916e-02  5.4627307754998689e-02  5.4667033129058504e-02  5.4981952626574182e-02  5.5734493807391275e-02  5.7114117076222021e-02  5.9328022736916397e-02  6.2529745268728620e-02  6.6523122246208766e-02  7.0259423948449667e-02  7.2031728029679526e-02  7.1205038239367274e-02  6.9231265473358616e-02  6.7692359718407757e-02  6.6508098337459284e-02  6.4941864302494601e-02  6.2753438141380680e-02  5.7478687995411670e-02  4.5504576436826247e-02  3.3043159392302970e-02  2.8105172460212026e-02  5.2926825364074857e-02  5.3386025253912409e-02  3.1657850489646942e-02  5.0870180046552915e-02  7.9089181544497844e-02  8.5289975381191041e-02  9.0606351067059901e-02  9.2519509604935019e-02  9.0961270959062701e-02  9.0374395623780801e-02  8.8756384727610230e-02  8.5105455826068876e-02  8.2054311674297400e-02  7.9430458292915312e-02  7.6101810662849823e-02  7.2253867260573326e-02  6.8579788154995242e-02  6.5544872306086591e-02  6.3299400887238150e-02  6.1771216675814415e-02  6.0827886450562606e-02  6.0348275840937979e-02  6.0199832353790367e-02  6.0240377195104694e-02  6.0349980459624628e-02  6.0447981383367641e-02  6.0488302479157222e-02  6.0449342458272534e-02  6.0330530446330466e-02  6.0159053376391491e-02  6.0002801629835796e-02  5.9975140993973178e-02  6.0216601171758088e-02  6.0864798565105710e-02  6.2043887738112771e-02  6.3849739216564616e-02  6.6312048626061978e-02  6.9408394715855998e-02  7.3042167266400407e-02  7.6879695320341737e-02  8.0606445420677381e-02  8.4544202959590198e-02  8.8662350812853855e-02  9.0993145158576441e-02  8.8284162886513209e-02  8.0834331757026395e-02  8.1567701135410939e-02  8.7838927069753422e-02  7.8643523937367066e-02  5.5878381520128709e-02  3.1062955825851564e-02  5.2957754023675009e-02  5.6255044118996428e-02  4.6836228886039652e-02  5.7150363039822898e-02  1.4054852933441345e-01  2.0998765144344358e-01  2.1428046315028054e-01  1.9964287438930783e-01  1.7926525179578875e-01  1.5716668708572368e-01  1.3744706121356434e-01  1.1962802757238122e-01  1.0383977636125885e-01  9.1592044847987220e-02  8.3452682010796350e-02  7.8411218461686194e-02  7.5247310447709617e-02  7.3150619028256855e-02  7.1413378396022784e-02  6.9666101080929160e-02  6.7978437023373667e-02  6.6621589378578844e-02  6.5743294133958227e-02  6.5284689441776705e-02  6.5088937500572014e-02  6.5012631136659310e-02  6.4973508261242152e-02  6.4956096463918853e-02  6.5002671898796729e-02  6.5197348954671913e-02  6.5639853348396240e-02  6.6407603999295850e-02  6.7516559444620511e-02  6.8912060248130444e-02  7.0540205970532427e-02  7.2381556216480333e-02  7.4395261073009603e-02  7.7003435582130228e-02  8.1461650541102604e-02  8.8675693056410071e-02  9.8658207531673314e-02  1.1178775660392244e-01  1.2919494868962894e-01  1.5080632137868141e-01  1.7417285468271665e-01  1.9479375698999235e-01  2.0263906846976928e-01  1.8902289053150503e-01  1.6109337699505591e-01  1.3064305085596115e-01  4.9537601915406598e-02  5.3520084142594571e-02  8.0820923202603590e-02  1.0582990275460000e-01  3.9402428795378480e-01  4.8116056843987598e-01  4.6327049061830877e-01  4.9828823590930532e-01  4.9205998729162981e-01  4.2797204854358040e-01  3.4283485902994165e-01  2.7124491311612042e-01  2.2133555199071864e-01  1.8324564464423379e-01  1.4792039484728514e-01  1.1296880814835576e-01  8.4429572932124414e-02  7.0319757961126564e-02  6.7018202825376572e-02  6.7026780505000522e-02  6.7142889035976261e-02  6.7094267042830752e-02  6.6889668376374889e-02  6.6441962634340504e-02  6.5850149246624023e-02  6.5315108471685354e-02  6.4976479402173673e-02  6.4881810667697881e-02  6.5021039887282042e-02  6.5344102690641975e-02  6.5751479699664064e-02  6.6094959197198558e-02  6.6214659251754723e-02  6.5926131211063027e-02  6.4981506949972206e-02  6.3813863515133129e-02  6.4809320512288909e-02  7.2245528418066307e-02  8.9960853635308868e-02  1.1669428186620215e-01  1.4756569503106945e-01  1.7993152740660673e-01  2.1523470819878596e-01  2.6068000136112868e-01  3.2704115285310065e-01  4.0675456866684440e-01  4.6747051556940716e-01  4.9426775162100656e-01  4.9805208308186705e-01  4.9169210596584179e-01  3.9703564921527340e-01  1.5665030809231872e-01  6.8304454832973094e-02  4.3620377500519764e-01  4.9501941040888731e-01  5.8472411269492996e-01  6.0004739426328935e-01  5.5765865301707296e-01  5.2514041000310197e-01  5.0586381408223569e-01  4.7253304852857059e-01  4.2199461526737758e-01  3.6478080459813078e-01  3.1475277106156385e-01  2.7368448210927926e-01  2.3779289690408661e-01  2.0427919018792073e-01  1.7080804537681626e-01  1.3404581694396400e-01  9.5102085633244335e-02  6.4464399859533783e-02  5.0182183213215457e-02  4.6720883500126389e-02  4.6272715855499906e-02  4.6316186375932496e-02  4.6310069868152864e-02  4.6196930342820519e-02  4.6009565017131535e-02  4.5777908708656501e-02  4.5512444066012119e-02  4.5195493018634271e-02  4.4812519651996854e-02  4.4476358054341324e-02  4.4670888037942717e-02  4.6706521730132219e-02  5.3776618359887216e-02  7.0583224548806611e-02  9.7997176838313882e-02  1.3137269993323253e-01  1.6530692381321854e-01  1.9777467650089606e-01  2.2992291557740477e-01  2.6390829607204669e-01  3.0256710127104780e-01  3.4848639278853089e-01  3.9841528222745698e-01  4.4307520225766800e-01  4.7979865733531740e-01  5.1495096162605725e-01  5.5060348898428280e-01  5.8911114628505323e-01  6.0632262401180259e-01  5.5798712839792231e-01  3.8117831025292764e-01  8.5658063073546786e-01  8.5524917089797159e-01  7.7074407391539701e-01  7.1268148227031436e-01  6.6626084427105736e-01  6.1289428089419817e-01  5.5990578315747319e-01  5.0873055300936409e-01  4.5979257517476319e-01  4.1155777800223559e-01  3.6733960608107691e-01  3.2832382181767322e-01  2.9250278603486035e-01  2.5890997463044430e-01  2.2800194150320605e-01  2.0025812052283148e-01  1.7516990410655414e-01  1.5077107610836493e-01  1.2490742783408360e-01  9.8621592656588694e-02  7.6386528720390701e-02  6.1272181999988427e-02  5.3051704804333015e-02  4.9386916004501742e-02  4.7958321867273022e-02  4.7547422379738080e-02  4.7893967310620497e-02  4.9505616146760648e-02  5.3684901018295976e-02  6.2278990870782765e-02  7.6580298490950216e-02  9.6289339749556682e-02  1.1967474357344088e-01  1.4453052674612699e-01  1.6960718267350769e-01  1.9539407324994129e-01  2.2303707216826218e-01  2.5332209078848156e-01  2.8642847530664561e-01  3.2241231524010033e-01  3.6224437105157353e-01  4.0683084867694119e-01  4.5427907569336140e-01  5.0218148331201995e-01  5.5093057742349782e-01  5.9972233406247089e-01  6.4912403075451686e-01  7.0468043601742092e-01  7.7358998989986250e-01  8.6406973760198769e-01  8.2124554062476152e-01  9.4018145481490512e-01  9.5178894601451558e-01  9.1073377870791339e-01  8.4307760289113387e-01  7.7840986214948482e-01  7.2659741815489520e-01  6.6760671330167076e-01  6.0573866373950025e-01  5.4857954329922398e-01  4.9450277706111734e-01  4.4391390762414162e-01  3.9876897344847040e-01  3.5801584021764926e-01  3.1957031354856374e-01  2.8276398467652952e-01  2.4854414807842917e-01  2.1855590748193673e-01  1.9370954829835560e-01  1.7362003233282763e-01  1.5728902263779737e-01  1.4373688473329158e-01  1.3234028636181469e-01  1.2309515368413845e-01  1.1631285740362193e-01  1.1211427788606509e-01  1.1039034741576946e-01  1.1106550013759803e-01  1.1425385740163579e-01  1.2018762971491179e-01  1.2898687118894539e-01  1.4050962977837889e-01  1.5458245347743316e-01  1.7136244827460245e-01  1.9138950900848120e-01  2.1540336910141250e-01  2.4388373113802037e-01  2.7655198908885648e-01  3.1254245234511102e-01  3.5118050791243588e-01  3.9284637138439327e-01  4.3894198683502439e-01  4.8992149614377967e-01  5.4431736269270270e-01  6.0146860108470623e-01  6.6008010534341843e-01  7.1528257929478345e-01  7.7250063129318369e-01  8.5131584872828403e-01  9.1972715816503536e-01  9.5438890097861873e-01  9.2835893359691468e-01  9.5636446866541180e-01  9.7000337614639720e-01  9.4788265136973471e-01  9.0346922989730338e-01  8.4543138133285856e-01  7.9876116706088318e-01  7.5306067245325659e-01  6.9731587782311721e-01  6.3995590951783432e-01  5.8387230528489598e-01  5.2911168664902475e-01  4.7781081867903502e-01  4.3105231895164958e-01  3.8795445920896665e-01  3.4754390116948952e-01  3.0952343268985799e-01  2.7426973085035644e-01  2.4268589918296868e-01  2.1575416627187499e-01  1.9403117983871213e-01  1.7734490691640131e-01  1.6494181583160253e-01  1.5600133726928123e-01  1.4993220132018231e-01  1.4635330046020861e-01  1.4504299460916048e-01  1.4595424730258189e-01  1.4922163211082856e-01  1.5512079528006623e-01  1.6401660162058712e-01  1.7635020079041949e-01  1.9262278194772559e-01  2.1326093198751284e-01  2.3844793590847557e-01  2.6813504794116771e-01  3.0211178354362611e-01  3.3996761184164198e-01  3.8114587896784541e-01  4.2530077906208003e-01  4.7274787321168515e-01  5.2402800173907549e-01  5.7848133054257689e-01  6.3471118309586871e-01  6.9209663144937150e-01  7.4672012855583436e-01  7.9414265919684357e-01  8.4699414413075080e-01  9.0627939547476444e-01  9.4900464345040403e-01  9.7028094074794902e-01  9.5385687013293718e-01  9.5402393382865269e-01  9.7081023299557789e-01  9.5149060745523861e-01  9.1438996241216697e-01  8.6683931742684073e-01  8.2785479392881756e-01  7.9395708974257850e-01  7.5240092490733457e-01  7.0520744740408459e-01  6.5596527604702715e-01  6.0539832566062901e-01  5.5521730086240462e-01  5.0689029187959822e-01  4.6058202363553991e-01  4.1638664191807717e-01  3.7483776596507012e-01  3.3646212516620305e-01  3.0162855136211425e-01  2.7080275674005416e-01  2.4455208550541963e-01  2.2317469627819803e-01  2.0648810408456425e-01  1.9404245493784719e-01  1.8540516386980779e-01  1.8025935177664687e-01  1.7841173236173727e-01  1.7980897181474739e-01  1.8454397020534113e-01  1.9282649730379967e-01  2.0493125621701469e-01  2.2114968394792928e-01  2.4173871492478516e-01  2.6684886759415927e-01  2.9649903481737860e-01  3.3063514458998366e-01  3.6907982494160352e-01  4.1127522541680933e-01  4.5620206857036610e-01  5.0287027853597599e-01  5.5096168244274035e-01  6.0051554751381497e-01  6.5075684914095888e-01  7.0049285320280641e-01  7.4898596959581432e-01  7.9244837258229239e-01  8.2707325836734169e-01  8.6508320302999353e-01  9.1241751768877066e-01  9.5029200247650547e-01  9.7037267080832368e-01  9.5641477523238416e-01  9.2896155991737361e-01  9.5664427474947766e-01  9.3126764055186673e-01  8.9103375712307997e-01  8.5056060181838611e-01  8.2381408241043841e-01  8.0007285614088564e-01  7.6973563680258150e-01  7.3457113980338251e-01  6.9669595597322975e-01  6.5645134036010089e-01  6.1486052774557709e-01  5.7260274968836433e-01  5.2960013205736578e-01  4.8618177437790749e-01  4.4351049847410590e-01  4.0295918171240841e-01  3.6557583002844157e-01  3.3212610212429788e-01  3.0326453705408679e-01  2.7943580409962909e-01  2.6068543410429917e-01  2.4668509592179830e-01  2.3695000441134964e-01  2.3105592057358071e-01  2.2876565130159032e-01  2.3007172990634253e-01  2.3517460620677008e-01  2.4441310594492513e-01  2.5816363592480673e-01  2.7672705733953884e-01  3.0023472372576526e-01  3.2861706758914688e-01  3.6164613448993072e-01  3.9894847408301370e-01  4.3982878561050809e-01  4.8301619687663055e-01  5.2680514493801001e-01  5.6979640677961485e-01  6.1162560454284121e-01  6.5269508346418803e-01  6.9291360969205695e-01  7.3154981654021378e-01  7.6848609671207546e-01  8.0193338754249377e-01  8.2667931967006769e-01  8.4871474818195647e-01  8.8385870919727649e-01  9.2516746467875566e-01  9.5445616593063154e-01  9.4059502042813015e-01  8.2298950217064304e-01  8.8190276004169454e-01  8.3227184322586756e-01  8.0153548416000209e-01  7.9002580549464085e-01  7.8265407748869376e-01  7.7030051551938217e-01  7.5130642291083261e-01  7.2853702135844767e-01  7.0346427884103857e-01  6.7643713704405617e-01  6.4773152562091474e-01  6.1684671954349357e-01  5.8302145105579073e-01  5.4639305255594373e-01  5.0818777445789109e-01  4.7004594585357745e-01  4.3342863917115626e-01  3.9953656797740111e-01  3.6943905906046426e-01  3.4403630249024114e-01  3.2385624229705579e-01  3.0890792694917629e-01  2.9874558521719508e-01  2.9273533251152800e-01  2.9039628388070171e-01  2.9164713035447692e-01  2.9683979052022980e-01  3.0657613043329240e-01  3.2141000679135662e-01  3.4158091509074340e-01  3.6689870349916603e-01  3.9681196264998092e-01  4.3057031057525269e-01  4.6729486906207668e-01  5.0583115002071677e-01  5.4456484799590865e-01  5.8163295500808321e-01  6.1564133070887861e-01  6.4634943362911235e-01  6.7458280017420058e-01  7.0115419008245150e-01  7.2609155848164786e-01  7.4972162561318512e-01  7.7264734930554857e-01  7.9066427181692001e-01  8.0019354171681478e-01  8.0624637475800631e-01  8.3251301979492720e-01  8.7633119160230566e-01  8.5911073267884963e-01  3.8951831125621844e-01  6.2117418481615672e-01  6.7383925003504486e-01  6.7986930700999482e-01  6.8656870972370743e-01  6.9851078087726892e-01  7.0273474623831977e-01  6.9938151521606007e-01  6.9115892183380656e-01  6.8019106290465259e-01  6.6775310321777348e-01  6.5366011597400064e-01  6.364494386