<?xml version="1.0"?>
<VTKFile type="UnstructuredGrid"  version="0.1"  >
<UnstructuredGrid>
<Piece  NumberOfPoints="2601" NumberOfCells="5000">
<Points>
<DataArray  type="Float64"  NumberOfComponents="3"  format="ascii">0 0 0  0.03 0 0  0.06 0 0  0.09 0 0  0.12 0 0  0.15 0 0  0.18 0 0  0.21 0 0  0.24 0 0  0.27 0 0  0.3 0 0  0.33 0 0  0.36 0 0  0.39 0 0  0.42 0 0  0.45 0 0  0.48 0 0  0.51 0 0  0.54 0 0  0.57 0 0  0.6 0 0  0.63 0 0  0.66 0 0  0.6899999999999999 0 0  0.72 0 0  0.75 0 0  0.78 0 0  0.8100000000000001 0 0  0.84 0 0  0.87 0 0  0.9 0 0  0.93 0 0  0.96 0 0  0.99 0 0  1.02 0 0  1.05 0 0  1.08 0 0  1.11 0 0  1.14 0 0  1.17 0 0  1.2 0 0  1.23 0 0  1.26 0 0  1.29 0 0  1.32 0 0  1.35 0 0  1.38 0 0  1.41 0 0  1.44 0 0  1.47 0 0  1.5 0 0  0 0.02 0  0.03 0.02 0  0.06 0.02 0  0.09 0.02 0  0.12 0.02 0  0.15 0.02 0  0.18 0.02 0  0.21 0.02 0  0.24 0.02 0  0.27 0.02 0  0.3 0.02 0  0.33 0.02 0  0.36 0.02 0  0.39 0.02 0  0.42 0.02 0  0.45 0.02 0  0.48 0.02 0  0.51 0.02 0  0.54 0.02 0  0.57 0.02 0  0.6 0.02 0  0.63 0.02 0  0.66 0.02 0  0.6899999999999999 0.02 0  0.72 0.02 0  0.75 0.02 0  0.78 0.02 0  0.8100000000000001 0.02 0  0.84 0.02 0  0.87 0.02 0  0.9 0.02 0  0.93 0.02 0  0.96 0.02 0  0.99 0.02 0  1.02 0.02 0  1.05 0.02 0  1.08 0.02 0  1.11 0.02 0  1.14 0.02 0  1.17 0.02 0  1.2 0.02 0  1.23 0.02 0  1.26 0.02 0  1.29 0.02 0  1.32 0.02 0  1.35 0.02 0  1.38 0.02 0  1.41 0.02 0  1.44 0.02 0  1.47 0.02 0  1.5 0.02 0  0 0.04 0  0.03 0.04 0  0.06 0.04 0  0.09 0.04 0  0.12 0.04 0  0.15 0.04 0  0.18 0.04 0  0.21 0.04 0  0.24 0.04 0  0.27 0.04 0  0.3 0.04 0  0.33 0.04 0  0.36 0.04 0  0.39 0.04 0  0.42 0.04 0  0.45 0.04 0  0.48 0.04 0  0.51 0.04 0  0.54 0.04 0  0.57 0.04 0  0.6 0.04 0  0.63 0.04 0  0.66 0.04 0  0.6899999999999999 0.04 0  0.72 0.04 0  0.75 0.04 0  0.78 0.04 0  0.8100000000000001 0.04 0  0.84 0.04 0  0.87 0.04 0  0.9 0.04 0  0.93 0.04 0  0.96 0.04 0  0.99 0.04 0  1.02 0.04 0  1.05 0.04 0  1.08 0.04 0  1.11 0.04 0  1.14 0.04 0  1.17 0.04 0  1.2 0.04 0  1.23 0.04 0  1.26 0.04 0  1.29 0.04 0  1.32 0.04 0  1.35 0.04 0  1.38 0.04 0  1.41 0.04 0  1.44 0.04 0  1.47 0.04 0  1.5 0.04 0  0 0.06 0  0.03 0.06 0  0.06 0.06 0  0.09 0.06 0  0.12 0.06 0  0.15 0.06 0  0.18 0.06 0  0.21 0.06 0  0.24 0.06 0  0.27 0.06 0  0.3 0.06 0  0.33 0.06 0  0.36 0.06 0  0.39 0.06 0  0.42 0.06 0  0.45 0.06 0  0.48 0.06 0  0.51 0.06 0  0.54 0.06 0  0.57 0.06 0  0.6 0.06 0  0.63 0.06 0  0.66 0.06 0  0.6899999999999999 0.06 0  0.72 0.06 0  0.75 0.06 0  0.78 0.06 0  0.8100000000000001 0.06 0  0.84 0.06 0  0.87 0.06 0  0.9 0.06 0  0.93 0.06 0  0.96 0.06 0  0.99 0.06 0  1.02 0.06 0  1.05 0.06 0  1.08 0.06 0  1.11 0.06 0  1.14 0.06 0  1.17 0.06 0  1.2 0.06 0  1.23 0.06 0  1.26 0.06 0  1.29 0.06 0  1.32 0.06 0  1.35 0.06 0  1.38 0.06 0  1.41 0.06 0  1.44 0.06 0  1.47 0.06 0  1.5 0.06 0  0 0.08 0  0.03 0.08 0  0.06 0.08 0  0.09 0.08 0  0.12 0.08 0  0.15 0.08 0  0.18 0.08 0  0.21 0.08 0  0.24 0.08 0  0.27 0.08 0  0.3 0.08 0  0.33 0.08 0  0.36 0.08 0  0.39 0.08 0  0.42 0.08 0  0.45 0.08 0  0.48 0.08 0  0.51 0.08 0  0.54 0.08 0  0.57 0.08 0  0.6 0.08 0  0.63 0.08 0  0.66 0.08 0  0.6899999999999999 0.08 0  0.72 0.08 0  0.75 0.08 0  0.78 0.08 0  0.8100000000000001 0.08 0  0.84 0.08 0  0.87 0.08 0  0.9 0.08 0  0.93 0.08 0  0.96 0.08 0  0.99 0.08 0  1.02 0.08 0  1.05 0.08 0  1.08 0.08 0  1.11 0.08 0  1.14 0.08 0  1.17 0.08 0  1.2 0.08 0  1.23 0.08 0  1.26 0.08 0  1.29 0.08 0  1.32 0.08 0  1.35 0.08 0  1.38 0.08 0  1.41 0.08 0  1.44 0.08 0  1.47 0.08 0  1.5 0.08 0  0 0.1 0  0.03 0.1 0  0.06 0.1 0  0.09 0.1 0  0.12 0.1 0  0.15 0.1 0  0.18 0.1 0  0.21 0.1 0  0.24 0.1 0  0.27 0.1 0  0.3 0.1 0  0.33 0.1 0  0.36 0.1 0  0.39 0.1 0  0.42 0.1 0  0.45 0.1 0  0.48 0.1 0  0.51 0.1 0  0.54 0.1 0  0.57 0.1 0  0.6 0.1 0  0.63 0.1 0  0.66 0.1 0  0.6899999999999999 0.1 0  0.72 0.1 0  0.75 0.1 0  0.78 0.1 0  0.8100000000000001 0.1 0  0.84 0.1 0  0.87 0.1 0  0.9 0.1 0  0.93 0.1 0  0.96 0.1 0  0.99 0.1 0  1.02 0.1 0  1.05 0.1 0  1.08 0.1 0  1.11 0.1 0  1.14 0.1 0  1.17 0.1 0  1.2 0.1 0  1.23 0.1 0  1.26 0.1 0  1.29 0.1 0  1.32 0.1 0  1.35 0.1 0  1.38 0.1 0  1.41 0.1 0  1.44 0.1 0  1.47 0.1 0  1.5 0.1 0  0 0.12 0  0.03 0.12 0  0.06 0.12 0  0.09 0.12 0  0.12 0.12 0  0.15 0.12 0  0.18 0.12 0  0.21 0.12 0  0.24 0.12 0  0.27 0.12 0  0.3 0.12 0  0.33 0.12 0  0.36 0.12 0  0.39 0.12 0  0.42 0.12 0  0.45 0.12 0  0.48 0.12 0  0.51 0.12 0  0.54 0.12 0  0.57 0.12 0  0.6 0.12 0  0.63 0.12 0  0.66 0.12 0  0.6899999999999999 0.12 0  0.72 0.12 0  0.75 0.12 0  0.78 0.12 0  0.8100000000000001 0.12 0  0.84 0.12 0  0.87 0.12 0  0.9 0.12 0  0.93 0.12 0  0.96 0.12 0  0.99 0.12 0  1.02 0.12 0  1.05 0.12 0  1.08 0.12 0  1.11 0.12 0  1.14 0.12 0  1.17 0.12 0  1.2 0.12 0  1.23 0.12 0  1.26 0.12 0  1.29 0.12 0  1.32 0.12 0  1.35 0.12 0  1.38 0.12 0  1.41 0.12 0  1.44 0.12 0  1.47 0.12 0  1.5 0.12 0  0 0.14 0  0.03 0.14 0  0.06 0.14 0  0.09 0.14 0  0.12 0.14 0  0.15 0.14 0  0.18 0.14 0  0.21 0.14 0  0.24 0.14 0  0.27 0.14 0  0.3 0.14 0  0.33 0.14 0  0.36 0.14 0  0.39 0.14 0  0.42 0.14 0  0.45 0.14 0  0.48 0.14 0  0.51 0.14 0  0.54 0.14 0  0.57 0.14 0  0.6 0.14 0  0.63 0.14 0  0.66 0.14 0  0.6899999999999999 0.14 0  0.72 0.14 0  0.75 0.14 0  0.78 0.14 0  0.8100000000000001 0.14 0  0.84 0.14 0  0.87 0.14 0  0.9 0.14 0  0.93 0.14 0  0.96 0.14 0  0.99 0.14 0  1.02 0.14 0  1.05 0.14 0  1.08 0.14 0  1.11 0.14 0  1.14 0.14 0  1.17 0.14 0  1.2 0.14 0  1.23 0.14 0  1.26 0.14 0  1.29 0.14 0  1.32 0.14 0  1.35 0.14 0  1.38 0.14 0  1.41 0.14 0  1.44 0.14 0  1.47 0.14 0  1.5 0.14 0  0 0.16 0  0.03 0.16 0  0.06 0.16 0  0.09 0.16 0  0.12 0.16 0  0.15 0.16 0  0.18 0.16 0  0.21 0.16 0  0.24 0.16 0  0.27 0.16 0  0.3 0.16 0  0.33 0.16 0  0.36 0.16 0  0.39 0.16 0  0.42 0.16 0  0.45 0.16 0  0.48 0.16 0  0.51 0.16 0  0.54 0.16 0  0.57 0.16 0  0.6 0.16 0  0.63 0.16 0  0.66 0.16 0  0.6899999999999999 0.16 0  0.72 0.16 0  0.75 0.16 0  0.78 0.16 0  0.8100000000000001 0.16 0  0.84 0.16 0  0.87 0.16 0  0.9 0.16 0  0.93 0.16 0  0.96 0.16 0  0.99 0.16 0  1.02 0.16 0  1.05 0.16 0  1.08 0.16 0  1.11 0.16 0  1.14 0.16 0  1.17 0.16 0  1.2 0.16 0  1.23 0.16 0  1.26 0.16 0  1.29 0.16 0  1.32 0.16 0  1.35 0.16 0  1.38 0.16 0  1.41 0.16 0  1.44 0.16 0  1.47 0.16 0  1.5 0.16 0  0 0.18 0  0.03 0.18 0  0.06 0.18 0  0.09 0.18 0  0.12 0.18 0  0.15 0.18 0  0.18 0.18 0  0.21 0.18 0  0.24 0.18 0  0.27 0.18 0  0.3 0.18 0  0.33 0.18 0  0.36 0.18 0  0.39 0.18 0  0.42 0.18 0  0.45 0.18 0  0.48 0.18 0  0.51 0.18 0  0.54 0.18 0  0.57 0.18 0  0.6 0.18 0  0.63 0.18 0  0.66 0.18 0  0.6899999999999999 0.18 0  0.72 0.18 0  0.75 0.18 0  0.78 0.18 0  0.8100000000000001 0.18 0  0.84 0.18 0  0.87 0.18 0  0.9 0.18 0  0.93 0.18 0  0.96 0.18 0  0.99 0.18 0  1.02 0.18 0  1.05 0.18 0  1.08 0.18 0  1.11 0.18 0  1.14 0.18 0  1.17 0.18 0  1.2 0.18 0  1.23 0.18 0  1.26 0.18 0  1.29 0.18 0  1.32 0.18 0  1.35 0.18 0  1.38 0.18 0  1.41 0.18 0  1.44 0.18 0  1.47 0.18 0  1.5 0.18 0  0 0.2 0  0.03 0.2 0  0.06 0.2 0  0.09 0.2 0  0.12 0.2 0  0.15 0.2 0  0.18 0.2 0  0.21 0.2 0  0.24 0.2 0  0.27 0.2 0  0.3 0.2 0  0.33 0.2 0  0.36 0.2 0  0.39 0.2 0  0.42 0.2 0  0.45 0.2 0  0.48 0.2 0  0.51 0.2 0  0.54 0.2 0  0.57 0.2 0  0.6 0.2 0  0.63 0.2 0  0.66 0.2 0  0.6899999999999999 0.2 0  0.72 0.2 0  0.75 0.2 0  0.78 0.2 0  0.8100000000000001 0.2 0  0.84 0.2 0  0.87 0.2 0  0.9 0.2 0  0.93 0.2 0  0.96 0.2 0  0.99 0.2 0  1.02 0.2 0  1.05 0.2 0  1.08 0.2 0  1.11 0.2 0  1.14 0.2 0  1.17 0.2 0  1.2 0.2 0  1.23 0.2 0  1.26 0.2 0  1.29 0.2 0  1.32 0.2 0  1.35 0.2 0  1.38 0.2 0  1.41 0.2 0  1.44 0.2 0  1.47 0.2 0  1.5 0.2 0  0 0.22 0  0.03 0.22 0  0.06 0.22 0  0.09 0.22 0  0.12 0.22 0  0.15 0.22 0  0.18 0.22 0  0.21 0.22 0  0.24 0.22 0  0.27 0.22 0  0.3 0.22 0  0.33 0.22 0  0.36 0.22 0  0.39 0.22 0  0.42 0.22 0  0.45 0.22 0  0.48 0.22 0  0.51 0.22 0  0.54 0.22 0  0.57 0.22 0  0.6 0.22 0  0.63 0.22 0  0.66 0.22 0  0.6899999999999999 0.22 0  0.72 0.22 0  0.75 0.22 0  0.78 0.22 0  0.8100000000000001 0.22 0  0.84 0.22 0  0.87 0.22 0  0.9 0.22 0  0.93 0.22 0  0.96 0.22 0  0.99 0.22 0  1.02 0.22 0  1.05 0.22 0  1.08 0.22 0  1.11 0.22 0  1.14 0.22 0  1.17 0.22 0  1.2 0.22 0  1.23 0.22 0  1.26 0.22 0  1.29 0.22 0  1.32 0.22 0  1.35 0.22 0  1.38 0.22 0  1.41 0.22 0  1.44 0.22 0  1.47 0.22 0  1.5 0.22 0  0 0.24 0  0.03 0.24 0  0.06 0.24 0  0.09 0.24 0  0.12 0.24 0  0.15 0.24 0  0.18 0.24 0  0.21 0.24 0  0.24 0.24 0  0.27 0.24 0  0.3 0.24 0  0.33 0.24 0  0.36 0.24 0  0.39 0.24 0  0.42 0.24 0  0.45 0.24 0  0.48 0.24 0  0.51 0.24 0  0.54 0.24 0  0.57 0.24 0  0.6 0.24 0  0.63 0.24 0  0.66 0.24 0  0.6899999999999999 0.24 0  0.72 0.24 0  0.75 0.24 0  0.78 0.24 0  0.8100000000000001 0.24 0  0.84 0.24 0  0.87 0.24 0  0.9 0.24 0  0.93 0.24 0  0.96 0.24 0  0.99 0.24 0  1.02 0.24 0  1.05 0.24 0  1.08 0.24 0  1.11 0.24 0  1.14 0.24 0  1.17 0.24 0  1.2 0.24 0  1.23 0.24 0  1.26 0.24 0  1.29 0.24 0  1.32 0.24 0  1.35 0.24 0  1.38 0.24 0  1.41 0.24 0  1.44 0.24 0  1.47 0.24 0  1.5 0.24 0  0 0.26 0  0.03 0.26 0  0.06 0.26 0  0.09 0.26 0  0.12 0.26 0  0.15 0.26 0  0.18 0.26 0  0.21 0.26 0  0.24 0.26 0  0.27 0.26 0  0.3 0.26 0  0.33 0.26 0  0.36 0.26 0  0.39 0.26 0  0.42 0.26 0  0.45 0.26 0  0.48 0.26 0  0.51 0.26 0  0.54 0.26 0  0.57 0.26 0  0.6 0.26 0  0.63 0.26 0  0.66 0.26 0  0.6899999999999999 0.26 0  0.72 0.26 0  0.75 0.26 0  0.78 0.26 0  0.8100000000000001 0.26 0  0.84 0.26 0  0.87 0.26 0  0.9 0.26 0  0.93 0.26 0  0.96 0.26 0  0.99 0.26 0  1.02 0.26 0  1.05 0.26 0  1.08 0.26 0  1.11 0.26 0  1.14 0.26 0  1.17 0.26 0  1.2 0.26 0  1.23 0.26 0  1.26 0.26 0  1.29 0.26 0  1.32 0.26 0  1.35 0.26 0  1.38 0.26 0  1.41 0.26 0  1.44 0.26 0  1.47 0.26 0  1.5 0.26 0  0 0.28 0  0.03 0.28 0  0.06 0.28 0  0.09 0.28 0  0.12 0.28 0  0.15 0.28 0  0.18 0.28 0  0.21 0.28 0  0.24 0.28 0  0.27 0.28 0  0.3 0.28 0  0.33 0.28 0  0.36 0.28 0  0.39 0.28 0  0.42 0.28 0  0.45 0.28 0  0.48 0.28 0  0.51 0.28 0  0.54 0.28 0  0.57 0.28 0  0.6 0.28 0  0.63 0.28 0  0.66 0.28 0  0.6899999999999999 0.28 0  0.72 0.28 0  0.75 0.28 0  0.78 0.28 0  0.8100000000000001 0.28 0  0.84 0.28 0  0.87 0.28 0  0.9 0.28 0  0.93 0.28 0  0.96 0.28 0  0.99 0.28 0  1.02 0.28
[...]
<PointData  Scalars="ControlVisualisation"> 
<DataArray  type="Float64"  Name="ControlVisualisation"  format="ascii">2.1990958414483378e-01  1.6378863076241421e-01  1.6392470082263838e-01  1.6422254112403259e-01  1.6468049287693443e-01  1.6523163743609628e-01  1.6579613782523298e-01  1.6632304903777365e-01  1.6679046457995020e-01  1.6718613423736967e-01  1.6749778827006256e-01  1.6771803830991114e-01  1.6784982533275949e-01  1.6790506318445855e-01  1.6790112602173679e-01  1.6785926437924048e-01  1.6780164477272291e-01  1.6774518358210797e-01  1.6769815516394290e-01  1.6766241595254450e-01  1.6763675500298506e-01  1.6761856220468410e-01  1.6760497451778425e-01  1.6759416378212852e-01  1.6758579819023148e-01  1.6758028919606446e-01  1.6757781284647733e-01  1.6757821043870177e-01  1.6758181765998334e-01  1.6759026032785049e-01  1.6760627100838671e-01  1.6763256244074376e-01  1.6767037721302738e-01  1.6771775422151786e-01  1.6776758614355167e-01  1.6780691179228219e-01  1.6781841497483252e-01  1.6778267948434578e-01  1.6768031266964756e-01  1.6749572452135711e-01  1.6722259332655232e-01  1.6686591204039936e-01  1.6643610609352771e-01  1.6594217279291493e-01  1.6539869365387133e-01  1.6484567263187497e-01  1.6435605099002595e-01  1.6400610498174073e-01  1.6382216403580901e-01  1.6375967480385256e-01  3.2959701721361456e-01  1.6377284169309522e-01  9.0282057535269467e-02  9.0694216083160570e-02  9.1648333661602174e-02  9.3187768652419595e-02  9.5108886883105204e-02  9.7125202855145157e-02  9.9039466019203382e-02  1.0077310614721517e-01  1.0228732556434562e-01  1.0352615048770475e-01  1.0443968224887412e-01  1.0502238232116223e-01  1.0531213583353374e-01  1.0536990713505184e-01  1.0526769182376836e-01  1.0507733520751898e-01  1.0485384062596607e-01  1.0463123321932685e-01  1.0443264366201720e-01  1.0427339488384299e-01  1.0415559113861017e-01  1.0407023443469111e-01  1.0400752290567815e-01  1.0396351372400069e-01  1.0393864307156193e-01  1.0393304314526872e-01  1.0394455205178217e-01  1.0397113817003084e-01  1.0401519122347749e-01  1.0408538209968626e-01  1.0419364926673803e-01  1.0434828117510481e-01  1.0454477775894055e-01  1.0475663535104608e-01  1.0493300905731341e-01  1.0500809769446415e-01  1.0491262795639156e-01  1.0457729430954843e-01  1.0393923000421018e-01  1.0296563558999582e-01  1.0167736163424469e-01  1.0013398368191663e-01  9.8385815820254269e-02  9.6470543902602790e-02  9.4492038802814593e-02  9.2679273205556134e-02  9.1312834138929849e-02  9.0536594031754000e-02  9.0232658511638558e-02  1.6375758716716077e-01  1.6382268611782907e-01  9.0470264159133562e-02  9.1359863898160032e-02  9.3342216431602204e-02  9.6510499784705980e-02  1.0042913255680012e-01  1.0449203619676799e-01  1.0828676685182431e-01  1.1168461079230925e-01  1.1465673216900285e-01  1.1710550793101576e-01  1.1891451099036870e-01  1.2006041321721454e-01  1.2061724897929649e-01  1.2070408840795305e-01  1.2046412808126178e-01  1.2004877121534993e-01  1.1957326044891409e-01  1.1910145911097073e-01  1.1867882995029140e-01  1.1834435321039544e-01  1.1810633503615811e-01  1.1794128084440217e-01  1.1782285918371349e-01  1.1774108254487688e-01  1.1769794377180599e-01  1.1769453452149402e-01  1.1772521629304233e-01  1.1778313244217903e-01  1.1787129216666210e-01  1.1800850035160612e-01  1.1822323201510224e-01  1.1853900221202049e-01  1.1895572810157393e-01  1.1942684854638085e-01  1.1984838619426050e-01  1.2008172481337798e-01  1.1998721312160908e-01  1.1942980418861782e-01  1.1827973729535660e-01  1.1645756982467681e-01  1.1399754690688359e-01  1.1102561797320099e-01  1.0763319112036507e-01  1.0384786376219031e-01  9.9825411610249909e-02  9.6001827358501657e-02  9.2984687010907188e-02  9.1172374628808533e-02  9.0395080913289183e-02  1.6378691543864649e-01  1.6389620524274293e-01  9.0815186059908168e-02  9.2497163055959231e-02  9.5829248983276230e-02  1.0070010772508205e-01  1.0626414023961100e-01  1.1159572066776334e-01  1.1618644738312234e-01  1.2002170408279730e-01  1.2323515654006227e-01  1.2580129843380194e-01  1.2761068928048064e-01  1.2865237825987894e-01  1.2902800727042754e-01  1.2887769878965924e-01  1.2837333082081889e-01  1.2771189740129066e-01  1.2702267262877728e-01  1.2634568033509638e-01  1.2572567976114205e-01  1.2523558907693935e-01  1.2489576417799614e-01  1.2466271893585347e-01  1.2449285635404553e-01  1.2437695124892426e-01  1.2432559339271926e-01  1.2434342280555878e-01  1.2441953401321666e-01  1.2453831952642308e-01  1.2469963345213736e-01  1.2492840686084758e-01  1.2526167841065056e-01  1.2572925401333429e-01  1.2634103919631942e-01  1.2705789656513916e-01  1.2776085416503072e-01  1.2828067199513188e-01  1.2845321484265368e-01  1.2811616509188203e-01  1.2709769400981458e-01  1.2528080590698534e-01  1.2269536925169650e-01  1.1948445526610539e-01  1.1566752307099733e-01  1.1105794548365293e-01  1.0566823344347602e-01  1.0008183127639625e-01  9.5295423730941270e-02  9.2145105909301625e-02  9.0664274635259584e-02  1.6384603407358383e-01  1.6396356482131658e-01  9.1485404299213660e-02  9.5170450711461671e-02  1.0148255206953082e-01  1.0928156931826383e-01  1.1692225705956774e-01  1.2313011309415428e-01  1.2759461559139665e-01  1.3085613965235579e-01  1.3335578625444927e-01  1.3510826780737586e-01  1.3606731049321130e-01  1.3631207219962410e-01  1.3599800986619948e-01  1.3525504886523498e-01  1.3422935714071474e-01  1.3314616201339050e-01  1.3212168835103874e-01  1.3111908124107974e-01  1.3017073057205283e-01  1.2942732245284089e-01  1.2892971548455701e-01  1.2858837947902502e-01  1.2833062179741939e-01  1.2815590278915490e-01  1.2809406966283790e-01  1.2815665844309962e-01  1.2832325343919002e-01  1.2856272502623112e-01  1.2887030975558425e-01  1.2928223453761595e-01  1.2984271742206749e-01  1.3057284406756772e-01  1.3148886159420869e-01  1.3258260198799168e-01  1.3374599826542130e-01  1.3480494977413182e-01  1.3561706762314352e-01  1.3602603784072656e-01  1.3577810495495812e-01  1.3464281643844250e-01  1.3264202522651694e-01  1.3007875515597950e-01  1.2701776341999121e-01  1.2284179365879724e-01  1.1680862948359107e-01  1.0897228358168465e-01  1.0079333077067708e-01  9.4426826823123200e-02  9.1144044225588444e-02  1.6391369575228523e-01  1.6405636675380472e-01  9.3097540147211763e-02  1.0266945916338548e-01  1.1623988131589300e-01  1.2744608545028274e-01  1.3490482538595985e-01  1.3891891157117045e-01  1.4075774567768512e-01  1.4264053582813155e-01  1.4491573289352577e-01  1.4605685314072561e-01  1.4556951510155364e-01  1.4417281163480225e-01  1.4252308419593879e-01  1.4083148941268803e-01  1.3914553859734247e-01  1.3764285979514806e-01  1.3630033544660744e-01  1.3491954676549625e-01  1.3350440210063472e-01  1.3238908484043366e-01  1.3165950618051217e-01  1.3114239294209123e-01  1.3072923228628047e-01  1.3044833597638494e-01  1.3036468917595981e-01  1.3049670771535085e-01  1.3080009649346788e-01  1.3120620967783020e-01  1.3169077620813988e-01  1.3230183586198363e-01  1.3308924877425310e-01  1.3404042763234697e-01  1.3518978071048462e-01  1.3665108435595816e-01  1.3839395724528136e-01  1.4023252556341781e-01  1.4203330252569257e-01  1.4364923076654765e-01  1.4466289577166455e-01  1.4451883622241224e-01  1.4320933696209995e-01  1.4168084089671426e-01  1.4086323022424027e-01  1.3930414632550328e-01  1.3519855584123291e-01  1.2840834635853149e-01  1.1603403532603179e-01  1.0120277846069957e-01  9.2252405701782586e-02  1.6396921145077714e-01  1.6467781687546507e-01  9.7852097042451264e-02  1.2317156489094187e-01  1.5869301414806489e-01  1.6840305630997135e-01  1.6246703705351159e-01  1.5650573671388371e-01  1.5120140490393713e-01  1.4901776558085802e-01  1.5152493401581318e-01  1.5465128211460599e-01  1.5410952881630879e-01  1.5056057950121304e-01  1.4642693783440383e-01  1.4298418899446000e-01  1.4055902749878818e-01  1.3944895023542769e-01  1.3867825052675167e-01  1.3755447041791821e-01  1.3606807704365093e-01  1.3490078563884578e-01  1.3414518748451262e-01  1.3350418928686936e-01  1.3288984172502427e-01  1.3243200161018065e-01  1.3226779639781727e-01  1.3242425139528161e-01  1.3281080188832059e-01  1.3327970000089628e-01  1.3375040503791821e-01  1.3429052903002195e-01  1.3499659150753093e-01  1.3578410256110918e-01  1.3668395488467505e-01  1.3811756843948544e-01  1.4041010650366914e-01  1.4352339636651923e-01  1.4728022230440038e-01  1.5129838579114799e-01  1.5455832118990370e-01  1.5550197268620097e-01  1.5407873521678628e-01  1.5322080251170928e-01  1.5582090195820567e-01  1.6005548837468489e-01  1.5995358924028710e-01  1.5722275975416558e-01  1.5148547334664911e-01  1.2687048551638175e-01  9.7167137431968947e-02  1.6409718424744552e-01  1.7024040253814618e-01  1.2538700607958589e-01  1.5715666940991979e-01  2.2338855294561574e-01  2.7104965014857463e-01  2.6586382203917980e-01  2.5116515639481435e-01  2.2401751055187061e-01  1.9925005047540878e-01  1.8479649065186354e-01  1.7785996543101240e-01  1.7153888505674547e-01  1.6350891840864235e-01  1.5557041806454291e-01  1.4668104856213077e-01  1.3775834593821215e-01  1.3452790818382723e-01  1.3390615786937451e-01  1.3326422386103468e-01  1.3292252818573436e-01  1.3329271283523392e-01  1.3371577832777820e-01  1.3363592977199820e-01  1.3314044597142002e-01  1.3262491795666542e-01  1.3237736648089207e-01  1.3246635743727292e-01  1.3276805980497960e-01  1.3302676923277157e-01  1.3307051226396063e-01  1.3305828724082086e-01  1.3339052118582373e-01  1.3423938806631369e-01  1.3596513222389345e-01  1.3934338507973382e-01  1.4399942529854487e-01  1.4941773230041025e-01  1.5676435209817743e-01  1.6684560426860329e-01  1.7852813643328613e-01  1.8898976879828999e-01  1.9550416678566351e-01  2.0354088827769515e-01  2.1972505504509204e-01  2.3529835893837373e-01  2.4296728929536668e-01  2.4294492703133094e-01  2.3376071177898960e-01  2.0702207777673026e-01  1.2169407426857332e-01  1.6503110610021526e-01  2.1492156449085925e-01  2.7498265617352602e-01  3.6444343868489154e-01  3.7661960808777412e-01  3.8465413809530802e-01  3.8637141235251726e-01  3.7971539889382450e-01  3.4320895921141253e-01  2.9755985280161862e-01  2.5765079806269420e-01  2.2623895174890929e-01  2.0711930005401608e-01  1.9268026319906076e-01  1.8322905709239770e-01  1.7430099501844765e-01  1.5481236032642778e-01  1.4683976888912534e-01  1.4136345701816930e-01  1.2990147583120890e-01  1.2336893790793760e-01  1.2380951210061482e-01  1.2535330918077389e-01  1.2623726407943478e-01  1.2644600537004583e-01  1.2642267751277300e-01  1.2647367482037372e-01  1.2672266260749321e-01  1.2716702588259721e-01  1.2767983171691197e-01  1.2835925990989391e-01  1.3006613603548578e-01  1.3349007953148589e-01  1.3676172914889412e-01  1.3965017512414765e-01  1.4653533142478636e-01  1.5870493436039182e-01  1.7024186041051240e-01  1.7990775807218470e-01  1.9273709823836963e-01  2.0893758405508397e-01  2.2690162350200110e-01  2.5196212515851890e-01  2.7944190879976422e-01  3.1096977294227046e-01  3.4734527735328652e-01  3.7746153227611479e-01  4.0263439628234948e-01  4.1796447519898844e-01  3.8408327713800428e-01  2.5671971647106956e-01  1.8891737726366656e-01  4.5283474261408851e-01  4.9035989170786665e-01  5.3071316125859647e-01  5.0448053459602638e-01  4.7013453285978779e-01  4.3126177675399791e-01  3.9891252983965569e-01  3.6438138774733675e-01  3.3264564681470754e-01  3.0829659631415468e-01  2.8237590412717312e-01  2.5462269403513554e-01  2.2759197727356403e-01  2.0236594303027905e-01  1.7945027674123501e-01  1.6090785850370037e-01  1.7817056395240627e-01  2.9141945173389583e-01  1.7344794506627736e-01  1.4463261845559428e-01  1.3584947497677158e-01  1.3362236917852854e-01  1.3119710176748806e-01  1.2900878574223493e-01  1.2810928478659156e-01  1.2841752931985986e-01  1.2973079052466277e-01  1.3173183968423771e-01  1.3364414632896890e-01  1.3543053427138804e-01  1.3939308670583261e-01  1.4870422241879427e-01  1.6079652279475115e-01  1.6486839849447102e-01  1.6399999892890507e-01  1.7107113449353295e-01  1.8744869345046017e-01  2.0747099849008760e-01  2.2934348974444083e-01  2.5371492905864301e-01  2.7926699351939260e-01  3.0188207697721964e-01  3.2085740226931392e-01  3.4487258603751053e-01  3.7987820265022049e-01  4.2391206459208147e-01  4.7162067256112394e-01  5.1427550434631264e-01  5.2713640322354505e-01  5.0074452501581690e-01  4.1766410170454937e-01  7.1341110233314853e-01  7.3362426866485886e-01  6.6693215743445855e-01  6.1347069458425407e-01  5.5886800379771051e-01  5.0018800197952817e-01  4.5026417775363209e-01  4.0944129014578046e-01  3.7652272443388157e-01  3.5352638442559364e-01  3.3267274516721934e-01  3.0431807995172466e-01  2.7126753381595392e-01  2.3727442265946722e-01  2.0553568855210219e-01  1.7851628745587839e-01  1.6709376104417198e-01  1.7948904045853187e-01  1.7220850360792303e-01  1.4882642924236855e-01  1.5600340334495927e-01  1.6126397015013516e-01  1.5783319415441344e-01  1.5125299753433957e-01  1.4684085155680360e-01  1.4569744023319703e-01  1.4752635960937982e-01  1.5158542525349622e-01  1.5586814021412937e-01  1.5704924822819236e-01  1.5493005456569720e-01  1.5420008711843333e-01  1.5857232822733033e-01  1.6704596243052675e-01  1.7763389363692753e-01  1.9263502777098479e-01  2.1493798913833456e-01  2.4363834511349522e-01  2.7637486101540382e-01  3.0922437506270689e-01  3.3604693313593309e-01  3.5345944922918704e-01  3.7090145584559592e-01  3.9906252696257821e-01  4.3991149296391685e-01  4.9094852533839872e-01  5.4919874296808957e-01  6.1116081336433548e-01  6.7072016661434697e-01  7.4999729343765742e-01  6.8323542088738787e-01  8.3104310270994841e-01  8.6381228270524657e-01  7.8262294799226639e-01  7.0006924586414299e-01  6.3432655058224641e-01  5.7725861815870827e-01  5.2119881401772028e-01  4.6826562927417764e-01  4.2560658338223528e-01  3.9542261263099032e-01  3.7539632227698372e-01  3.5457682527140860e-01  3.2491621659293163e-01  2.8805063286271920e-01  2.4927026018810411e-01  2.1666197545312491e-01  1.9693147129353511e-01  1.8358564570396313e-01  1.6576413334333606e-01  1.4976487570204663e-01  1.4981692370301478e-01  1.5248547147526509e-01  1.5044848219741752e-01  1.4599158337534859e-01  1.4300619334320877e-01  1.4229929671616764e-01  1.4333395863705067e-01  1.4610253698196071e-01  1.5059136543189786e-01  1.5587476723888108e-01  1.6063969219255408e-01  1.6520059861061928e-01  1.7126010217714907e-01  1.8121274355020667e-01  1.9821105219114274e-01  2.2352873315773825e-01  2.5617214098654906e-01  2.9356683067665823e-01  3.3027275801746503e-01  3.5906479043812572e-01  3.7733238803411651e-01  3.9325929725161962e-01  4.1851018991341959e-01  4.5820946357708298e-01  5.0977113891808412e-01  5.6690806436035390e-01  6.2628374359497196e-01  6.9871132203262643e-01  7.9013378645262389e-01  8.6984358651837190e-01  8.1472791915278953e-01  8.6639638071756364e-01  9.0366838240229497e-01  8.4312593512430600e-01  7.5808143215639667e-01  6.8081713839029234e-01  6.2434776304092521e-01  5.7529367751420057e-01  5.2637100806468684e-01  4.7898173009063527e-01  4.3818436523510512e-01  4.0680139184322417e-01  3.8402704340915922e-01  3.6273810565048220e-01  3.3613114656030291e-01  3.0370810678175841e-01  2.7000954852836129e-01  2.4138023174520695e-01  2.1798768024531290e-01  1.9466817061216660e-01  1.7600908550944105e-01  1.6836902053646433e-01  1.6364821303796456e-01  1.5861297122725315e-01  1.5477932755399337e-01  1.5317058790963906e-01  1.5326567132065638e-01  1.5466300258806903e-01  1.5746933015992814e-01  1.6197352218775241e-01  1.6840799649851082e-01  1.7672917859786713e-01  1.8672480898647287e-01  1.9895896711457850e-01  2.1589138938729202e-01  2.4052190094833981e-01  2.7236413799645465e-01  3.0684528597606031e-01  3.3867247997581001e-01  3.6463397836531081e-01  3.8513325895628897e-01  4.0508384482105042e-01  4.3139830291968401e-01  4.6791395323698831e-01  5.1359980981075370e-01  5.6470867135521396e-01  6.1830452459643881e-01  6.8066627118953438e-01  7.6208813206586878e-01  8.4641963323598735e-01  9.0472167645234447e-01  8.6161911425452198e-01  8.6194265342215692e-01  9.0700697338467307e-01  8.5535850889440090e-01  7.7988814146960428e-01  7.0375643288599676e-01  6.4654729824573398e-01  6.0135003545228649e-01  5.5930532922740639e-01  5.1854723028122551e-01  4.8001322661986773e-01  4.4548374182826067e-01  4.1614873311228612e-01  3.9175273464970517e-01  3.6971201896156908e-01  3.4696856262948378e-01  3.2222911679686250e-01  2.9642578398067826e-01  2.7054154272752168e-01  2.4478519357769796e-01  2.2208317900121338e-01  2.0613438812662827e-01  1.9478600118891762e-01  1.8553984978216881e-01  1.7929119036831453e-01  1.7660392104662290e-01  1.7669277257068050e-01  1.7905135344034467e-01  1.8388905814111156e-01  1.9161110390565023e-01  2.0218485773726053e-01  2.1506946042957628e-01  2.3002999812814073e-01  2.4791954219933932e-01  2.6988634110251469e-01  2.9511727038300350e-01  3.2090221571489513e-01  3.4533218871982985e-01  3.6832856059685648e-01  3.9067804232526115e-01  4.1368697298957691e-01  4.3964965821955987e-01  4.7086947187948869e-01  5.0797654402040571e-01  5.4985006891140353e-01  5.9527546979169810e-01  6.4457282961565998e-01  7.0496556568471092e-01  7.8064782075417660e-01  8.5409987188871384e-01  9.0585120329575419e-01  8.6670278316054328e-01  8.1479740553484004e-01  8.7856829919948132e-01  8.2583664912902166e-01  7.6018639913597930e-01  6.9838953086117972e-01  6.5089848703449293e-01  6.1193233291804838e-01  5.7536530085386728e-01  5.4007333650353362e-01  5.0654463884644907e-01  4.7587506845593397e-01  4.4819933685644919e-01  4.2298017102510166e-01  4.0004734603116648e-01  3.7968281694690453e-01  3.6143667334901730e-01  3.4380140498615958e-01  3.2550949470334201e-01  3.0653579904823747e-01  2.8808613577235154e-01  2.7145254111312789e-01  2.5665175319186601e-01  2.4347626326989324e-01  2.3332528619243381e-01  2.2775904820872073e-01  2.2699465736696212e-01  2.3055114037866145e-01  2.3797873795353641e-01  2.4874012038927268e-01  2.6190434027919401e-01  2.7636176765753395e-01  2.9140113542999674e-01  3.0687920180277939e-01  3.2277758989902083e-01  3.3910042897722570e-01  3.5647412352347890e-01  3.7589730623424961e-01  3.9756282569805956e-01  4.2060842835558576e-01  4.4445769891568054e-01  4.7006078039144400e-01  4.9899550828406575e-01  5.3174039266176132e-01  5.6772022855126802e-01  6.0696136658275246e-01  6.4980356362188918e-01  6.9948550276974730e-01  7.5915100259478008e-01  8.2114848201981738e-01  8.7407876171896759e-01  8.3227106039367071e-01  6.8312715790473844e-01  7.7930033827174217e-01  7.3474438120413721e-01  6.9503577075858725e-01  6.6037512221224903e-01  6.3208382946674568e-01  6.0502716227562880e-01  5.7731728384942760e-01  5.4898981727033980e-01  5.2107845834310651e-01  4.9519813981190836e-01  4.7191974984996921e-01  4.5041683196735410e-01  4.2986303890626532e-01  4.1058633420141888e-01  3.9350003347312307e-01  3.7871091822021946e-01  3.6547761304233256e-01  3.5337422466787771e-01  3.4257150357759469e-01  3.3295397809693561e-01  3.2386651244557169e-01  3.1499091026563869e-01  3.0721002844008599e-01  3.0210564979081217e-01  3.0075984510974629e-01  3.0325086443733151e-01  3.0885747296836707e-01  3.1644807960347981e-01  3.2491526655960223e-01  3.3357665805470310e-01  3.4229985569461258e-01  3.5139404934547896e-01  3.6154058668631839e-01  3.7372917816261125e-01  3.8888420909656574e-01  4.0716230813598975e-01  4.2754454406245207e-01  4.4845169050683603e-01  4.6915297560589181e-01  4.9043782027968663e-01  5.1371737688300512e-01  5.3969988614986053e-01  5.6801707891606279e-01  5.9826691928299680e-01  6.3059067439752925e-01  6.6547113966184734e-01  6.9834635447690552e-01  7.3314891626900047e-01  7.6457924573992941e-01  7.1406871901934377e-01  4.1467994299064492e-01  5.6345843157266795e-01  6.2326354582680632e-01  6.2069538931241497e-01  6.0104624004004770e-01  5.8556459007839357e-01  5.7256532411284877e-01  5.5892145004336935e-01  5.4243422725596369e-01  5.2420141233668027e-01  5.0606226321795145e-01  4.8876232669186215e-01  4.721381145