<?xml version="1.0"?>
<VTKFile type="UnstructuredGrid"  version="0.1"  >
<UnstructuredGrid>
<Piece  NumberOfPoints="2601" NumberOfCells="5000">
<Points>
<DataArray  type="Float64"  NumberOfComponents="3"  format="ascii">0 0 0  0.03 0 0  0.06 0 0  0.09 0 0  0.12 0 0  0.15 0 0  0.18 0 0  0.21 0 0  0.24 0 0  0.27 0 0  0.3 0 0  0.33 0 0  0.36 0 0  0.39 0 0  0.42 0 0  0.45 0 0  0.48 0 0  0.51 0 0  0.54 0 0  0.57 0 0  0.6 0 0  0.63 0 0  0.66 0 0  0.6899999999999999 0 0  0.72 0 0  0.75 0 0  0.78 0 0  0.8100000000000001 0 0  0.84 0 0  0.87 0 0  0.9 0 0  0.93 0 0  0.96 0 0  0.99 0 0  1.02 0 0  1.05 0 0  1.08 0 0  1.11 0 0  1.14 0 0  1.17 0 0  1.2 0 0  1.23 0 0  1.26 0 0  1.29 0 0  1.32 0 0  1.35 0 0  1.38 0 0  1.41 0 0  1.44 0 0  1.47 0 0  1.5 0 0  0 0.02 0  0.03 0.02 0  0.06 0.02 0  0.09 0.02 0  0.12 0.02 0  0.15 0.02 0  0.18 0.02 0  0.21 0.02 0  0.24 0.02 0  0.27 0.02 0  0.3 0.02 0  0.33 0.02 0  0.36 0.02 0  0.39 0.02 0  0.42 0.02 0  0.45 0.02 0  0.48 0.02 0  0.51 0.02 0  0.54 0.02 0  0.57 0.02 0  0.6 0.02 0  0.63 0.02 0  0.66 0.02 0  0.6899999999999999 0.02 0  0.72 0.02 0  0.75 0.02 0  0.78 0.02 0  0.8100000000000001 0.02 0  0.84 0.02 0  0.87 0.02 0  0.9 0.02 0  0.93 0.02 0  0.96 0.02 0  0.99 0.02 0  1.02 0.02 0  1.05 0.02 0  1.08 0.02 0  1.11 0.02 0  1.14 0.02 0  1.17 0.02 0  1.2 0.02 0  1.23 0.02 0  1.26 0.02 0  1.29 0.02 0  1.32 0.02 0  1.35 0.02 0  1.38 0.02 0  1.41 0.02 0  1.44 0.02 0  1.47 0.02 0  1.5 0.02 0  0 0.04 0  0.03 0.04 0  0.06 0.04 0  0.09 0.04 0  0.12 0.04 0  0.15 0.04 0  0.18 0.04 0  0.21 0.04 0  0.24 0.04 0  0.27 0.04 0  0.3 0.04 0  0.33 0.04 0  0.36 0.04 0  0.39 0.04 0  0.42 0.04 0  0.45 0.04 0  0.48 0.04 0  0.51 0.04 0  0.54 0.04 0  0.57 0.04 0  0.6 0.04 0  0.63 0.04 0  0.66 0.04 0  0.6899999999999999 0.04 0  0.72 0.04 0  0.75 0.04 0  0.78 0.04 0  0.8100000000000001 0.04 0  0.84 0.04 0  0.87 0.04 0  0.9 0.04 0  0.93 0.04 0  0.96 0.04 0  0.99 0.04 0  1.02 0.04 0  1.05 0.04 0  1.08 0.04 0  1.11 0.04 0  1.14 0.04 0  1.17 0.04 0  1.2 0.04 0  1.23 0.04 0  1.26 0.04 0  1.29 0.04 0  1.32 0.04 0  1.35 0.04 0  1.38 0.04 0  1.41 0.04 0  1.44 0.04 0  1.47 0.04 0  1.5 0.04 0  0 0.06 0  0.03 0.06 0  0.06 0.06 0  0.09 0.06 0  0.12 0.06 0  0.15 0.06 0  0.18 0.06 0  0.21 0.06 0  0.24 0.06 0  0.27 0.06 0  0.3 0.06 0  0.33 0.06 0  0.36 0.06 0  0.39 0.06 0  0.42 0.06 0  0.45 0.06 0  0.48 0.06 0  0.51 0.06 0  0.54 0.06 0  0.57 0.06 0  0.6 0.06 0  0.63 0.06 0  0.66 0.06 0  0.6899999999999999 0.06 0  0.72 0.06 0  0.75 0.06 0  0.78 0.06 0  0.8100000000000001 0.06 0  0.84 0.06 0  0.87 0.06 0  0.9 0.06 0  0.93 0.06 0  0.96 0.06 0  0.99 0.06 0  1.02 0.06 0  1.05 0.06 0  1.08 0.06 0  1.11 0.06 0  1.14 0.06 0  1.17 0.06 0  1.2 0.06 0  1.23 0.06 0  1.26 0.06 0  1.29 0.06 0  1.32 0.06 0  1.35 0.06 0  1.38 0.06 0  1.41 0.06 0  1.44 0.06 0  1.47 0.06 0  1.5 0.06 0  0 0.08 0  0.03 0.08 0  0.06 0.08 0  0.09 0.08 0  0.12 0.08 0  0.15 0.08 0  0.18 0.08 0  0.21 0.08 0  0.24 0.08 0  0.27 0.08 0  0.3 0.08 0  0.33 0.08 0  0.36 0.08 0  0.39 0.08 0  0.42 0.08 0  0.45 0.08 0  0.48 0.08 0  0.51 0.08 0  0.54 0.08 0  0.57 0.08 0  0.6 0.08 0  0.63 0.08 0  0.66 0.08 0  0.6899999999999999 0.08 0  0.72 0.08 0  0.75 0.08 0  0.78 0.08 0  0.8100000000000001 0.08 0  0.84 0.08 0  0.87 0.08 0  0.9 0.08 0  0.93 0.08 0  0.96 0.08 0  0.99 0.08 0  1.02 0.08 0  1.05 0.08 0  1.08 0.08 0  1.11 0.08 0  1.14 0.08 0  1.17 0.08 0  1.2 0.08 0  1.23 0.08 0  1.26 0.08 0  1.29 0.08 0  1.32 0.08 0  1.35 0.08 0  1.38 0.08 0  1.41 0.08 0  1.44 0.08 0  1.47 0.08 0  1.5 0.08 0  0 0.1 0  0.03 0.1 0  0.06 0.1 0  0.09 0.1 0  0.12 0.1 0  0.15 0.1 0  0.18 0.1 0  0.21 0.1 0  0.24 0.1 0  0.27 0.1 0  0.3 0.1 0  0.33 0.1 0  0.36 0.1 0  0.39 0.1 0  0.42 0.1 0  0.45 0.1 0  0.48 0.1 0  0.51 0.1 0  0.54 0.1 0  0.57 0.1 0  0.6 0.1 0  0.63 0.1 0  0.66 0.1 0  0.6899999999999999 0.1 0  0.72 0.1 0  0.75 0.1 0  0.78 0.1 0  0.8100000000000001 0.1 0  0.84 0.1 0  0.87 0.1 0  0.9 0.1 0  0.93 0.1 0  0.96 0.1 0  0.99 0.1 0  1.02 0.1 0  1.05 0.1 0  1.08 0.1 0  1.11 0.1 0  1.14 0.1 0  1.17 0.1 0  1.2 0.1 0  1.23 0.1 0  1.26 0.1 0  1.29 0.1 0  1.32 0.1 0  1.35 0.1 0  1.38 0.1 0  1.41 0.1 0  1.44 0.1 0  1.47 0.1 0  1.5 0.1 0  0 0.12 0  0.03 0.12 0  0.06 0.12 0  0.09 0.12 0  0.12 0.12 0  0.15 0.12 0  0.18 0.12 0  0.21 0.12 0  0.24 0.12 0  0.27 0.12 0  0.3 0.12 0  0.33 0.12 0  0.36 0.12 0  0.39 0.12 0  0.42 0.12 0  0.45 0.12 0  0.48 0.12 0  0.51 0.12 0  0.54 0.12 0  0.57 0.12 0  0.6 0.12 0  0.63 0.12 0  0.66 0.12 0  0.6899999999999999 0.12 0  0.72 0.12 0  0.75 0.12 0  0.78 0.12 0  0.8100000000000001 0.12 0  0.84 0.12 0  0.87 0.12 0  0.9 0.12 0  0.93 0.12 0  0.96 0.12 0  0.99 0.12 0  1.02 0.12 0  1.05 0.12 0  1.08 0.12 0  1.11 0.12 0  1.14 0.12 0  1.17 0.12 0  1.2 0.12 0  1.23 0.12 0  1.26 0.12 0  1.29 0.12 0  1.32 0.12 0  1.35 0.12 0  1.38 0.12 0  1.41 0.12 0  1.44 0.12 0  1.47 0.12 0  1.5 0.12 0  0 0.14 0  0.03 0.14 0  0.06 0.14 0  0.09 0.14 0  0.12 0.14 0  0.15 0.14 0  0.18 0.14 0  0.21 0.14 0  0.24 0.14 0  0.27 0.14 0  0.3 0.14 0  0.33 0.14 0  0.36 0.14 0  0.39 0.14 0  0.42 0.14 0  0.45 0.14 0  0.48 0.14 0  0.51 0.14 0  0.54 0.14 0  0.57 0.14 0  0.6 0.14 0  0.63 0.14 0  0.66 0.14 0  0.6899999999999999 0.14 0  0.72 0.14 0  0.75 0.14 0  0.78 0.14 0  0.8100000000000001 0.14 0  0.84 0.14 0  0.87 0.14 0  0.9 0.14 0  0.93 0.14 0  0.96 0.14 0  0.99 0.14 0  1.02 0.14 0  1.05 0.14 0  1.08 0.14 0  1.11 0.14 0  1.14 0.14 0  1.17 0.14 0  1.2 0.14 0  1.23 0.14 0  1.26 0.14 0  1.29 0.14 0  1.32 0.14 0  1.35 0.14 0  1.38 0.14 0  1.41 0.14 0  1.44 0.14 0  1.47 0.14 0  1.5 0.14 0  0 0.16 0  0.03 0.16 0  0.06 0.16 0  0.09 0.16 0  0.12 0.16 0  0.15 0.16 0  0.18 0.16 0  0.21 0.16 0  0.24 0.16 0  0.27 0.16 0  0.3 0.16 0  0.33 0.16 0  0.36 0.16 0  0.39 0.16 0  0.42 0.16 0  0.45 0.16 0  0.48 0.16 0  0.51 0.16 0  0.54 0.16 0  0.57 0.16 0  0.6 0.16 0  0.63 0.16 0  0.66 0.16 0  0.6899999999999999 0.16 0  0.72 0.16 0  0.75 0.16 0  0.78 0.16 0  0.8100000000000001 0.16 0  0.84 0.16 0  0.87 0.16 0  0.9 0.16 0  0.93 0.16 0  0.96 0.16 0  0.99 0.16 0  1.02 0.16 0  1.05 0.16 0  1.08 0.16 0  1.11 0.16 0  1.14 0.16 0  1.17 0.16 0  1.2 0.16 0  1.23 0.16 0  1.26 0.16 0  1.29 0.16 0  1.32 0.16 0  1.35 0.16 0  1.38 0.16 0  1.41 0.16 0  1.44 0.16 0  1.47 0.16 0  1.5 0.16 0  0 0.18 0  0.03 0.18 0  0.06 0.18 0  0.09 0.18 0  0.12 0.18 0  0.15 0.18 0  0.18 0.18 0  0.21 0.18 0  0.24 0.18 0  0.27 0.18 0  0.3 0.18 0  0.33 0.18 0  0.36 0.18 0  0.39 0.18 0  0.42 0.18 0  0.45 0.18 0  0.48 0.18 0  0.51 0.18 0  0.54 0.18 0  0.57 0.18 0  0.6 0.18 0  0.63 0.18 0  0.66 0.18 0  0.6899999999999999 0.18 0  0.72 0.18 0  0.75 0.18 0  0.78 0.18 0  0.8100000000000001 0.18 0  0.84 0.18 0  0.87 0.18 0  0.9 0.18 0  0.93 0.18 0  0.96 0.18 0  0.99 0.18 0  1.02 0.18 0  1.05 0.18 0  1.08 0.18 0  1.11 0.18 0  1.14 0.18 0  1.17 0.18 0  1.2 0.18 0  1.23 0.18 0  1.26 0.18 0  1.29 0.18 0  1.32 0.18 0  1.35 0.18 0  1.38 0.18 0  1.41 0.18 0  1.44 0.18 0  1.47 0.18 0  1.5 0.18 0  0 0.2 0  0.03 0.2 0  0.06 0.2 0  0.09 0.2 0  0.12 0.2 0  0.15 0.2 0  0.18 0.2 0  0.21 0.2 0  0.24 0.2 0  0.27 0.2 0  0.3 0.2 0  0.33 0.2 0  0.36 0.2 0  0.39 0.2 0  0.42 0.2 0  0.45 0.2 0  0.48 0.2 0  0.51 0.2 0  0.54 0.2 0  0.57 0.2 0  0.6 0.2 0  0.63 0.2 0  0.66 0.2 0  0.6899999999999999 0.2 0  0.72 0.2 0  0.75 0.2 0  0.78 0.2 0  0.8100000000000001 0.2 0  0.84 0.2 0  0.87 0.2 0  0.9 0.2 0  0.93 0.2 0  0.96 0.2 0  0.99 0.2 0  1.02 0.2 0  1.05 0.2 0  1.08 0.2 0  1.11 0.2 0  1.14 0.2 0  1.17 0.2 0  1.2 0.2 0  1.23 0.2 0  1.26 0.2 0  1.29 0.2 0  1.32 0.2 0  1.35 0.2 0  1.38 0.2 0  1.41 0.2 0  1.44 0.2 0  1.47 0.2 0  1.5 0.2 0  0 0.22 0  0.03 0.22 0  0.06 0.22 0  0.09 0.22 0  0.12 0.22 0  0.15 0.22 0  0.18 0.22 0  0.21 0.22 0  0.24 0.22 0  0.27 0.22 0  0.3 0.22 0  0.33 0.22 0  0.36 0.22 0  0.39 0.22 0  0.42 0.22 0  0.45 0.22 0  0.48 0.22 0  0.51 0.22 0  0.54 0.22 0  0.57 0.22 0  0.6 0.22 0  0.63 0.22 0  0.66 0.22 0  0.6899999999999999 0.22 0  0.72 0.22 0  0.75 0.22 0  0.78 0.22 0  0.8100000000000001 0.22 0  0.84 0.22 0  0.87 0.22 0  0.9 0.22 0  0.93 0.22 0  0.96 0.22 0  0.99 0.22 0  1.02 0.22 0  1.05 0.22 0  1.08 0.22 0  1.11 0.22 0  1.14 0.22 0  1.17 0.22 0  1.2 0.22 0  1.23 0.22 0  1.26 0.22 0  1.29 0.22 0  1.32 0.22 0  1.35 0.22 0  1.38 0.22 0  1.41 0.22 0  1.44 0.22 0  1.47 0.22 0  1.5 0.22 0  0 0.24 0  0.03 0.24 0  0.06 0.24 0  0.09 0.24 0  0.12 0.24 0  0.15 0.24 0  0.18 0.24 0  0.21 0.24 0  0.24 0.24 0  0.27 0.24 0  0.3 0.24 0  0.33 0.24 0  0.36 0.24 0  0.39 0.24 0  0.42 0.24 0  0.45 0.24 0  0.48 0.24 0  0.51 0.24 0  0.54 0.24 0  0.57 0.24 0  0.6 0.24 0  0.63 0.24 0  0.66 0.24 0  0.6899999999999999 0.24 0  0.72 0.24 0  0.75 0.24 0  0.78 0.24 0  0.8100000000000001 0.24 0  0.84 0.24 0  0.87 0.24 0  0.9 0.24 0  0.93 0.24 0  0.96 0.24 0  0.99 0.24 0  1.02 0.24 0  1.05 0.24 0  1.08 0.24 0  1.11 0.24 0  1.14 0.24 0  1.17 0.24 0  1.2 0.24 0  1.23 0.24 0  1.26 0.24 0  1.29 0.24 0  1.32 0.24 0  1.35 0.24 0  1.38 0.24 0  1.41 0.24 0  1.44 0.24 0  1.47 0.24 0  1.5 0.24 0  0 0.26 0  0.03 0.26 0  0.06 0.26 0  0.09 0.26 0  0.12 0.26 0  0.15 0.26 0  0.18 0.26 0  0.21 0.26 0  0.24 0.26 0  0.27 0.26 0  0.3 0.26 0  0.33 0.26 0  0.36 0.26 0  0.39 0.26 0  0.42 0.26 0  0.45 0.26 0  0.48 0.26 0  0.51 0.26 0  0.54 0.26 0  0.57 0.26 0  0.6 0.26 0  0.63 0.26 0  0.66 0.26 0  0.6899999999999999 0.26 0  0.72 0.26 0  0.75 0.26 0  0.78 0.26 0  0.8100000000000001 0.26 0  0.84 0.26 0  0.87 0.26 0  0.9 0.26 0  0.93 0.26 0  0.96 0.26 0  0.99 0.26 0  1.02 0.26 0  1.05 0.26 0  1.08 0.26 0  1.11 0.26 0  1.14 0.26 0  1.17 0.26 0  1.2 0.26 0  1.23 0.26 0  1.26 0.26 0  1.29 0.26 0  1.32 0.26 0  1.35 0.26 0  1.38 0.26 0  1.41 0.26 0  1.44 0.26 0  1.47 0.26 0  1.5 0.26 0  0 0.28 0  0.03 0.28 0  0.06 0.28 0  0.09 0.28 0  0.12 0.28 0  0.15 0.28 0  0.18 0.28 0  0.21 0.28 0  0.24 0.28 0  0.27 0.28 0  0.3 0.28 0  0.33 0.28 0  0.36 0.28 0  0.39 0.28 0  0.42 0.28 0  0.45 0.28 0  0.48 0.28 0  0.51 0.28 0  0.54 0.28 0  0.57 0.28 0  0.6 0.28 0  0.63 0.28 0  0.66 0.28 0  0.6899999999999999 0.28 0  0.72 0.28 0  0.75 0.28 0  0.78 0.28 0  0.8100000000000001 0.28 0  0.84 0.28 0  0.87 0.28 0  0.9 0.28 0  0.93 0.28 0  0.96 0.28 0  0.99 0.28 0  1.02 0.28
[...]
<PointData  Scalars="ControlVisualisation"> 
<DataArray  type="Float64"  Name="ControlVisualisation"  format="ascii">1.5082364483589232e-03  9.9070680442407428e-04  9.9408512505074409e-04  1.0010405904401858e-03  1.0117497543637437e-03  1.0249815020479907e-03  1.0388333865636468e-03  1.0516178745566247e-03  1.0622753196604716e-03  1.0703723046277330e-03  1.0759185433378371e-03  1.0791759201036553e-03  1.0805241014135488e-03  1.0803781364481051e-03  1.0791396643520851e-03  1.0771696691530093e-03  1.0747755943919803e-03  1.0722077578244106e-03  1.0696615305803374e-03  1.0672829933588137e-03  1.0651765492194116e-03  1.0634133204960679e-03  1.0620393298068588e-03  1.0610826682706102e-03  1.0605591404904688e-03  1.0604761628159850e-03  1.0608348809850762e-03  1.0616305407478059e-03  1.0628511247854086e-03  1.0644742287469083e-03  1.0664621573717738e-03  1.0687553438508892e-03  1.0712644436870972e-03  1.0738617538775376e-03  1.0763728844784314e-03  1.0785698500633842e-03  1.0801670593817371e-03  1.0808223703554524e-03  1.0801464853219484e-03  1.0777252672436195e-03  1.0731594678282058e-03  1.0661326381936158e-03  1.0565202396611221e-03  1.0445549533831281e-03  1.0310120389665977e-03  1.0172991827439764e-03  1.0052794016282248e-03  9.9662081733030688e-04  9.9183465741932994e-04  9.8994426423090883e-04  2.8256862670873921e-03  9.9018516397591854e-04  4.8803158448792989e-04  4.9151305691103595e-04  4.9925535533010474e-04  5.1201973126007902e-04  5.2890571542308241e-04  5.4782363072032809e-04  5.6643893168441869e-04  5.8287910071227241e-04  5.9602370745580194e-04  6.0546513531948502e-04  6.1132096577564505e-04  6.1403500471277279e-04  6.1421416396313341e-04  6.1250713388953562e-04  6.0952418618501463e-04  6.0579329678777641e-04  6.0174333336851960e-04  5.9770446088105349e-04  5.9391821571660975e-04  5.9055228748276496e-04  5.8771677746791975e-04  5.8547971778194344e-04  5.8388038511443681e-04  5.8293963664412466e-04  5.8266706615588517e-04  5.8306509977058048e-04  5.8413021701803514e-04  5.8585137779984509e-04  5.8820557424540607e-04  5.9115030878391047e-04  5.9461284686082637e-04  5.9847641325911000e-04  6.0256411329815145e-04  6.0662214200673614e-04  6.1030467242980595e-04  6.1316427267149728e-04  6.1465398552629366e-04  6.1414972635027109e-04  6.1100139299033690e-04  6.0462000505713803e-04  5.9460910601879049e-04  5.8093513383809315e-04  5.6411722479697362e-04  5.4537453046427358e-04  5.2661900032504455e-04  5.1015058216556620e-04  4.9797932698284484e-04  4.9086948241852104e-04  4.8781289384651125e-04  9.8984123028752211e-04  9.9120315340291837e-04  4.8912090189652665e-04  4.9375594552136023e-04  5.0390862815777012e-04  5.2037793547054199e-04  5.4188647832632483e-04  5.6589511883523014e-04  5.8957888207843969e-04  6.1058722817604555e-04  6.2743891599765177e-04  6.3952506797191743e-04  6.4691838177736733e-04  6.5015398205434778e-04  6.5002292845922464e-04  6.4739713359180404e-04  6.4310583767641038e-04  6.3786645035013799e-04  6.3225754858470273e-04  6.2671872284565926e-04  6.2156536521705097e-04  6.1701059420775589e-04  6.1318926008947577e-04  6.1018059756496267e-04  6.0802733306056169e-04  6.0675022454236731e-04  6.0635794688580617e-04  6.0685270569600647e-04  6.0823198494100211e-04  6.1048659299653126e-04  6.1359485408405139e-04  6.1751252635305843e-04  6.2215799624060653e-04  6.2739274334147404e-04  6.3299808392674984e-04  6.3865033748395305e-04  6.4389788396126296e-04  6.4814635034248012e-04  6.5066059383494168e-04  6.5059694326185787e-04  6.4707821025444627e-04  6.3932761390672827e-04  6.2684614689335948e-04  6.0962706383006749e-04  5.8835149612333055e-04  5.6457428514182690e-04  5.4064870740113292e-04  5.1929621925895565e-04  5.0302855537029401e-04  4.9319517222648360e-04  4.8889046925302279e-04  9.9059332755049943e-04  9.9216711202845830e-04  4.9064763750286818e-04  4.9714938656425219e-04  5.0997878690299363e-04  5.2900706915660423e-04  5.5219078442971599e-04  5.7692183804118646e-04  6.0054140558801327e-04  6.2092627166356290e-04  6.3686381033851351e-04  6.4792668152940588e-04  6.5427129486088505e-04  6.5648028946703539e-04  6.5538217064807589e-04  6.5187572456503937e-04  6.4680543185128279e-04  6.4089490547257835e-04  6.3472274233636599e-04  6.2872395429766561e-04  6.2320560747946706e-04  6.1836975448125613e-04  6.1433895992865878e-04  6.1118067168789130e-04  6.0892770747109375e-04  6.0759357577461171e-04  6.0718265123799555e-04  6.0769584236610374e-04  6.0913234201675343e-04  6.1148768354411331e-04  6.1474790372222706e-04  6.1887923663228052e-04  6.2381262123445522e-04  6.2942283648864401e-04  6.3550352684359668e-04  6.4174068919606439e-04  6.4768878049333034e-04  6.5275421136703181e-04  6.5619216960426563e-04  6.5713828019134813e-04  6.5468779128689065e-04  6.4803632398094759e-04  6.3659937332330300e-04  6.2028015038295573e-04  5.9955433760142682e-04  5.7580307317178737e-04  5.5107970634438088e-04  5.2785296983640594e-04  5.0878819687049271e-04  4.9610009092984739e-04  4.9012833343366733e-04  9.9162984097570894e-04  9.9198769782635307e-04  4.9259789041763882e-04  5.0415580424417142e-04  5.2310158150339165e-04  5.4616090575886739e-04  5.7037107418759657e-04  5.9440971438416115e-04  6.1633174987189680e-04  6.3455199222502243e-04  6.4830613601961275e-04  6.5731826591563212e-04  6.6177089634775058e-04  6.6227549700528256e-04  6.5968893606060323e-04  6.5491897925455764e-04  6.4880081479912698e-04  6.4203967122749628e-04  6.3519290361407465e-04  6.2867346204994068e-04  6.2276556985057868e-04  6.1764785908589674e-04  6.1342021886558651e-04  6.1013009259651928e-04  6.0779444727006803e-04  6.0641567700324016e-04  6.0599172383593494e-04  6.0652152581629529e-04  6.0800667275723687e-04  6.1044954990374103e-04  6.1384771497021101e-04  6.1818373399414629e-04  6.2340925291291403e-04  6.2942267499239350e-04  6.3604230466251762e-04  6.4297890232488592e-04  6.4981137026451645e-04  6.5596557191831923e-04  6.6071148728819289e-04  6.6319804815832134e-04  6.6251219748557756e-04  6.5780690943507720e-04  6.4842245246744107e-04  6.3440446967662385e-04  6.1598469599038065e-04  5.9405900576553017e-04  5.6983358187559995e-04  5.4519869594409748e-04  5.2169530898846434e-04  5.0241518457783694e-04  4.9122065449699827e-04  9.9199933162601888e-04  9.9220778494983662e-04  4.9768997453882599e-04  5.3204014609421638e-04  5.8181035411452935e-04  6.1400791109530138e-04  6.2660968013480642e-04  6.3415571971340667e-04  6.4395758290781274e-04  6.5486072249934047e-04  6.6413330382427511e-04  6.6988136982300045e-04  6.7158511514508632e-04  6.6969881610741422e-04  6.6506975041416897e-04  6.5859537364475890e-04  6.5108321210308043e-04  6.4320422284886748e-04  6.3548177826936890e-04  6.2829606197629170e-04  6.2189835206823000e-04  6.1643356946002286e-04  6.1196899052024087e-04  6.0852367053470494e-04  6.0609260764203339e-04  6.0466316224441448e-04  6.0422471453280445e-04  6.0477357617200981e-04  6.0631446890528260e-04  6.0885884645514566e-04  6.1241973500969060e-04  6.1700213544166641e-04  6.2258685465783816e-04  6.2910617174376964e-04  6.3641383254317444e-04  6.4425620998899988e-04  6.5224639960713004e-04  6.5984666109560920e-04  6.6637808400445229e-04  6.7099069317968411e-04  6.7275938151709774e-04  6.7099362780043061e-04  6.6561297826710371e-04  6.5747296778664659e-04  6.4895891185301165e-04  6.4248533985136421e-04  6.3634267857333394e-04  6.1941280208933252e-04  5.7026216570903870e-04  5.1904344137673471e-04  4.9304045118965436e-04  9.9120958135225762e-04  1.0172142911277155e-03  5.3737759572679766e-04  7.4792859600055243e-04  1.2555198778854990e-03  1.5962368429785902e-03  1.2450076471481682e-03  9.1087587140569447e-04  7.5146959434961949e-04  6.9955945844000415e-04  6.8885778844084145e-04  6.8693648267446157e-04  6.8423045167170186e-04  6.7903960233060335e-04  6.7173144027779129e-04  6.6307323858285402e-04  6.5379787308239969e-04  6.4451833376585649e-04  6.3570922533843577e-04  6.2770683242207757e-04  6.2071898179431981e-04  6.1484509018567581e-04  6.1010774801909798e-04  6.0648763284609092e-04  6.0395099439640605e-04  6.0246617370774758e-04  6.0201193966849011e-04  6.0258134175406833e-04  6.0418294467731379e-04  6.0683947617771658e-04  6.1058345894449020e-04  6.1544901132057155e-04  6.2145627590630425e-04  6.2858407734162254e-04  6.3673272786733529e-04  6.4569556362568047e-04  6.5513728263984835e-04  6.6459148493241895e-04  6.7343110650964935e-04  6.8082447709752209e-04  6.8639648815499107e-04  6.9035640819513225e-04  6.9623168535471044e-04  7.1609697998550751e-04  7.7943603338042180e-04  9.2193318555524337e-04  1.2045836967759468e-03  1.5929556041437722e-03  1.3284676832165416e-03  7.8437685865322408e-04  5.2510833919610614e-04  9.9483376900129004e-04  1.1042358658630103e-03  1.1162326349401666e-03  3.3122889875269922e-02  5.3494479450596107e-02  4.8352731479277260e-02  3.1903583586790608e-02  1.5398677482924721e-02  2.2600488163509562e-03  9.9121140080315464e-04  7.6820910811670358e-04  7.1751041766815861e-04  7.0158501417760192e-04  6.9068827377929314e-04  6.7974040979516272e-04  6.6833699126340237e-04  6.5690107060550939e-04  6.4592817068081002e-04  6.3582019520245559e-04  6.2685612352842964e-04  6.1918915133993995e-04  6.1285874662217650e-04  6.0782693305436132e-04  6.0402357071285770e-04  6.0137879029995294e-04  5.9983820258077529e-04  5.9936820524454214e-04  5.9995798336203972e-04  6.0162055241049113e-04  6.0439201589757247e-04  6.0832823551997873e-04  6.1349942735499665e-04  6.1997747554318357e-04  6.2780422196426395e-04  6.3694103340201024e-04  6.4724762749855918e-04  6.5846025210519288e-04  6.7020119799444597e-04  6.8201321294508407e-04  6.9384780767760431e-04  7.0722706871566971e-04  7.3016494743221390e-04  7.9976855993740164e-04  1.0097311055085999e-03  1.9385941942355947e-03  1.1910966899827673e-02  2.8504612370816040e-02  4.8210492274989518e-02  5.4631136091742125e-02  3.5348141624461302e-02  1.1034572170244958e-03  1.0681257779267309e-03  2.2939657798411077e-03  8.7778728704947448e-02  2.1172526099803318e-01  2.1631317644112960e-01  1.8145485646283432e-01  1.3346574044310430e-01  8.2804010008071097e-02  3.7912203799103664e-02  1.0638827539936044e-02  1.4609134762800270e-03  8.5539059897761548e-04  7.4026230584726689e-04  7.0771586740470702e-04  6.8967262642760587e-04  6.7446135194868591e-04  6.6035065928217603e-04  6.4736154166356778e-04  6.3573626414918801e-04  6.2567005833075249e-04  6.1724968043303798e-04  6.1043569107978519e-04  6.0510669434051499e-04  6.0112569523031135e-04  5.9837928243102368e-04  5.9678759207161861e-04  5.9630348656363624e-04  5.9691166215091764e-04  5.9862991831019930e-04  6.0150972389284190e-04  6.0563344084557148e-04  6.1111379521514215e-04  6.1809054582220998e-04  6.2669504413056935e-04  6.3697223822256599e-04  6.4885577861759037e-04  6.6220432710729471e-04  6.7694982596447752e-04  6.9365646109402729e-04  7.1572110424149933e-04  7.6055520101498189e-04  8.9031984685909379e-04  1.4031590882417409e-03  6.9287835029768563e-03  3.1593482303636268e-02  7.7694789450180685e-02  1.3083667539122515e-01  1.7777757677114600e-01  2.0985601550593591e-01  2.0782793332149771e-01  1.1208184716208303e-01  1.7209568445644250e-03  4.0924197462939044e-01  4.6735464846361746e-01  4.9891928352902742e-01  4.2707584160810030e-01  3.5980667107203440e-01  2.7994793229104620e-01  1.9844039949700079e-01  1.2225179284416988e-01  5.9878954639926103e-02  2.0903003447133552e-02  2.4481372701845349e-03  9.6896015725880650e-04  7.5982200634087266e-04  7.0715655115810507e-04  6.8261950413536060e-04  6.6436604879021330e-04  6.4881980443270591e-04  6.3539991288205221e-04  6.2407603632165553e-04  6.1483987898891144e-04  6.0754054518438836e-04  6.0193478891706963e-04  5.9779721956271215e-04  5.9496490613576811e-04  5.9333186125753415e-04  5.9283717488822025e-04  5.9346017854802378e-04  5.9522322115636165e-04  5.9819551093585725e-04  6.0248831507337471e-04  6.0826109825276239e-04  6.1574248781728707e-04  6.2519949968325213e-04  6.3680763068966605e-04  6.5061138503084287e-04  6.6705011067550238e-04  6.8718452130129887e-04  7.1769123469600917e-04  7.8855786226031508e-04  1.0004902720219459e-03  2.0679734944074948e-03  1.3641245946317229e-02  5.3909740088728973e-02  1.2018900814867745e-01  1.9540070930959205e-01  2.7627485472431301e-01  3.5553801685511727e-01  4.2119986359566569e-01  4.5325964689541121e-01  4.7703966118600094e-01  3.5933958037097874e-01  9.9600844203170535e-01  9.7559623010574681e-01  7.9374735492996307e-01  6.6773464947504879e-01  5.6136420444135571e-01  4.4957989476876831e-01  3.4281530544234889e-01  2.4196217110163853e-01  1.5179011859900909e-01  7.7943714074576356e-02  2.7409489756704396e-02  5.0379920997029159e-03  1.1507164482560291e-03  7.8928056940935848e-04  7.0485043746358416e-04  6.7193324951196620e-04  6.5117877184017183e-04  6.3509984667956909e-04  6.2216104752189525e-04  6.1199460132965191e-04  6.0421535771169432e-04  5.9836697030528189e-04  5.9410115077933431e-04  5.9120240623082142e-04  5.8954035873480764e-04  5.8904065478554944e-04  5.8967570568251200e-04  5.9147106061173806e-04  5.9451833123229641e-04  5.9896286869977626e-04  6.0501183702184043e-04  6.1302002151194677e-04  6.2352252419436353e-04  6.3706533338118358e-04  6.5410476188330490e-04  6.7793515075549582e-04  7.1942624779862071e-04  8.2444926075135214e-04  1.1594378700495295e-03  3.5159494065151180e-03  2.2601406464676611e-02  7.4276217783135270e-02  1.4970191971209310e-01  2.3866850674613449e-01  3.3949971307911264e-01  4.4737914916448224e-01  5.5020857426639880e-01  6.6163472710077165e-01  8.1024803883927499e-01  9.8532091386646459e-01  9.8681220358311073e-01  9.9880712358498991e-01  9.9899577782307125e-01  9.9673561949174705e-01  9.0575015844235229e-01  7.4849097091352523e-01  6.2036253513098238e-01  4.9595669231824824e-01  3.7769568250409374e-01  2.6888717155797581e-01  1.7305762894958254e-01  9.4221025346907433e-02  3.8872284893116157e-02  1.1296429988176581e-02  1.5859765661374453e-03  8.7007818811873764e-04  7.1603926357198186e-04  6.6498359984036007e-04  6.3907729810340995e-04  6.2200922062461566e-04  6.0999062750187981e-04  6.0141037995193344e-04  5.9518447261062242e-04  5.9071752789834184e-04  5.8771514664954694e-04  5.8601027894563816e-04  5.8550878811840636e-04  5.8617278748942397e-04  5.8802920042497707e-04  5.9121271111331442e-04  5.9594440473627005e-04  6.0251296657313211e-04  6.1155744303074315e-04  6.2442336056328033e-04  6.4359366579371359e-04  6.7430866014038830e-04  7.3991516614651642e-04  9.0134663613936116e-04  1.4891693471471650e-03  7.1832393953363471e-03  3.3307877437076687e-02  9.2815303164798912e-02  1.7103476410263818e-01  2.6610854966501596e-01  3.7555791852399772e-01  4.9505502134944829e-01  6.1589758215028834e-01  7.4731362449276528e-01  9.3438565977764421e-01  9.9759550055804835e-01  9.9909816942145269e-01  9.9839673843050347e-01  9.9921531396254759e-01  9.9948363531012907e-01  9.9896416567430579e-01  9.9652255011307289e-01  9.1109976634523493e-01  7.7024071687809015e-01  6.4168943459557370e-01  5.1600995994584631e-01  3.9647266374540574e-01  2.8680119702191481e-01  1.9085794030822026e-01  1.1165874608490133e-01  5.3779594300668233e-02  2.0795507279535743e-02  3.4845923801376365e-03  1.1905317544295357e-03  8.1917635664272817e-04  7.0096107457499250e-04  6.5133900533011050e-04  6.2613914812395749e-04  6.1152043037685053e-04  6.0216082756604252e-04  5.9594328802986443e-04  5.9198006053087446e-04  5.8981373267996944e-04  5.8922311772679819e-04  5.9013399819207051e-04  5.9260968965186027e-04  5.9699740870121029e-04  6.0397834006260082e-04  6.1460486564080647e-04  6.3146420094990319e-04  6.6125626921101767e-04  7.1985278715809250e-04  8.3974903854651503e-04  1.1618219673724460e-03  2.7868262744701455e-03  1.7433393137558397e-02  5.0566488216244827e-02  1.1100132267187177e-01  1.8890027959352459e-01  2.8466139842266586e-01  3.9519824279769994e-01  5.1615900575173079e-01  6.4124430998728965e-01  7.7020582147678629e-01  9.3370226570492199e-01  9.9702792049439459e-01  9.9899714654681160e-01  9.9948354011289009e-01  9.9915331332879953e-01  9.9916889916141449e-01  9.9952155096718676e-01  9.9920169031508510e-01  9.9818025036592672e-01  9.9330186044587354e-01  8.8530796383869315e-01  7.6518230832258893e-01  6.4404682784454392e-01  5.2366278626920604e-01  4.0836646419721179e-01  3.0285952147987166e-01  2.1084447875749582e-01  1.3449441703141141e-01  7.6090723793514420e-02  3.5912966993620843e-02  1.4697578121558225e-02  3.9642547533163108e-03  1.5814840433518789e-03  1.0697401970759649e-03  8.8320718454402069e-04  7.9610284240266501e-04  7.4880286405702289e-04  7.2147491806817904e-04  7.0575969778576290e-04  6.9762324801990970e-04  6.9529678273534624e-04  6.9827031797291262e-04  7.0698469117857522e-04  7.2338059564646274e-04  7.5157871291299722e-04  7.9891990859446869e-04  8.8310416771395276e-04  1.0537805692697683e-03  1.5002771423529007e-03  3.3865364084912242e-03  1.1587214490641200e-02  2.8670972724873570e-02  7.4626823972320011e-02  1.3431522458973530e-01  2.0917117883519057e-01  3.0131341076910789e-01  4.0787920721367510e-01  5.2434273280623001e-01  6.4556540728994560e-01  7.6675783078103676e-01  8.9749877854599491e-01  9.9488578493895219e-01  9.9816688064811676e-01  9.9917519702622248e-01  9.9950989536323809e-01  9.9921932045718154e-01  9.9848261479903466e-01  9.9928553416472155e-01  9.9894544897752757e-01  9.9808415790400140e-01  9.9595624839445562e-01  9.5388116009058632e-01  8.5546050706033483e-01  7.5081878199728214e-01  6.4005836586841214e-01  5.2837920745497713e-01  4.2142502240744989e-01  3.2402192558307247e-01  2.3950603079349858e-01  1.6931953047571699e-01  1.1395052280656209e-01  7.3091729158551860e-02  4.5570810075124660e-02  2.8891827159083193e-02  1.9920847283557395e-02  1.4150914344807780e-02  9.1519911694739435e-03  6.2279179176778950e-03  4.7654359274968460e-03  4.0237965428947566e-03  3.6611259478632622e-03  3.5386957551041009e-03  3.6170292858926888e-03  3.9330663230548995e-03  4.6179511029167822e-03  5.9444413728965053e-03  8.4009985183921051e-03  1.3003677535108248e-02  2.0129679306276325e-02  2.6776787546082273e-02  4.1398579958692699e-02  7.2266648339143008e-02  1.1357906767091586e-01  1.6819759386347685e-01  2.3809266354496150e-01  3.2319365534945116e-01  4.2158920532183397e-01  5.2956511074925072e-01  6.4214524546538898e-01  7.5401985667548677e-01  8.6204764576314752e-01  9.6025253692115431e-01  9.9585959049290917e-01  9.9790274187601002e-01  9.9885406112654540e-01  9.9923959978644794e-01  9.9885233787958527e-01  9.8597842578814743e-01  9.9696480050005754e-01  9.9674649176773333e-01  9.9612163567183942e-01  9.9391886010274733e-01  9.6750219984181629e-01  9.0654669073662031e-01  8.2839042152928444e-01  7.3663100895594313e-01  6.3780006256802246e-01  5.3803465580866183e-01  4.4319927344579529e-01  3.5786892318287727e-01  2.8473353286461228e-01  2.2465521787084070e-01  1.7722913263892309e-01  1.4115181002037855e-01  1.1496986108433127e-01  9.7011400745391413e-02  8.4218491776630100e-02  7.4660496582815414e-02  6.8023117437831293e-02  6.3895919800741732e-02  6.1584449843047777e-02  6.0252051961226842e-02  5.9589461237756124e-02  5.9743565736153942e-02  6.0855385153175276e-02  6.3147942598133888e-02  6.7105482056485324e-02  7.3357753437066867e-02  8.2920232584638071e-02  9.7290287964006281e-02  1.1649838733257911e-01  1.4172149178128726e-01  1.7670274668245195e-01  2.2365842349249887e-01  2.8387336716046202e-01  3.5782720749166735e-01  4.4402010646801010e-01  5.3967805669491042e-01  6.4028863626514465e-01  7.4026519491404796e-01  8.3358741888816368e-01  9.1304699577051285e-01  9.6830626998510194e-01  9.9295304276428686e-01  9.9586115616825444e-01  9.9672263091803337e-01  9.9723766007618697e-01  9.9633568700372244e-01  3.4283899887919472e-01  6.5128575294124946e-01  8.0391061347628545e-01  8.9635337897908463e-01  9.3302815301673758e-01  9.3749160201777548e-01  9.1660620640895141e-01  8.7184874055617623e-01  8.0690358813998109e-01  7.2876309910702031e-01  6.4440245415403064e-01  5.6035464068822993e-01  4.819724799