<?xml version="1.0"?>
<VTKFile type="UnstructuredGrid"  version="0.1"  >
<UnstructuredGrid>
<Piece  NumberOfPoints="2601" NumberOfCells="5000">
<Points>
<DataArray  type="Float64"  NumberOfComponents="3"  format="ascii">0 0 0  0.03 0 0  0.06 0 0  0.09 0 0  0.12 0 0  0.15 0 0  0.18 0 0  0.21 0 0  0.24 0 0  0.27 0 0  0.3 0 0  0.33 0 0  0.36 0 0  0.39 0 0  0.42 0 0  0.45 0 0  0.48 0 0  0.51 0 0  0.54 0 0  0.57 0 0  0.6 0 0  0.63 0 0  0.66 0 0  0.6899999999999999 0 0  0.72 0 0  0.75 0 0  0.78 0 0  0.8100000000000001 0 0  0.84 0 0  0.87 0 0  0.9 0 0  0.93 0 0  0.96 0 0  0.99 0 0  1.02 0 0  1.05 0 0  1.08 0 0  1.11 0 0  1.14 0 0  1.17 0 0  1.2 0 0  1.23 0 0  1.26 0 0  1.29 0 0  1.32 0 0  1.35 0 0  1.38 0 0  1.41 0 0  1.44 0 0  1.47 0 0  1.5 0 0  0 0.02 0  0.03 0.02 0  0.06 0.02 0  0.09 0.02 0  0.12 0.02 0  0.15 0.02 0  0.18 0.02 0  0.21 0.02 0  0.24 0.02 0  0.27 0.02 0  0.3 0.02 0  0.33 0.02 0  0.36 0.02 0  0.39 0.02 0  0.42 0.02 0  0.45 0.02 0  0.48 0.02 0  0.51 0.02 0  0.54 0.02 0  0.57 0.02 0  0.6 0.02 0  0.63 0.02 0  0.66 0.02 0  0.6899999999999999 0.02 0  0.72 0.02 0  0.75 0.02 0  0.78 0.02 0  0.8100000000000001 0.02 0  0.84 0.02 0  0.87 0.02 0  0.9 0.02 0  0.93 0.02 0  0.96 0.02 0  0.99 0.02 0  1.02 0.02 0  1.05 0.02 0  1.08 0.02 0  1.11 0.02 0  1.14 0.02 0  1.17 0.02 0  1.2 0.02 0  1.23 0.02 0  1.26 0.02 0  1.29 0.02 0  1.32 0.02 0  1.35 0.02 0  1.38 0.02 0  1.41 0.02 0  1.44 0.02 0  1.47 0.02 0  1.5 0.02 0  0 0.04 0  0.03 0.04 0  0.06 0.04 0  0.09 0.04 0  0.12 0.04 0  0.15 0.04 0  0.18 0.04 0  0.21 0.04 0  0.24 0.04 0  0.27 0.04 0  0.3 0.04 0  0.33 0.04 0  0.36 0.04 0  0.39 0.04 0  0.42 0.04 0  0.45 0.04 0  0.48 0.04 0  0.51 0.04 0  0.54 0.04 0  0.57 0.04 0  0.6 0.04 0  0.63 0.04 0  0.66 0.04 0  0.6899999999999999 0.04 0  0.72 0.04 0  0.75 0.04 0  0.78 0.04 0  0.8100000000000001 0.04 0  0.84 0.04 0  0.87 0.04 0  0.9 0.04 0  0.93 0.04 0  0.96 0.04 0  0.99 0.04 0  1.02 0.04 0  1.05 0.04 0  1.08 0.04 0  1.11 0.04 0  1.14 0.04 0  1.17 0.04 0  1.2 0.04 0  1.23 0.04 0  1.26 0.04 0  1.29 0.04 0  1.32 0.04 0  1.35 0.04 0  1.38 0.04 0  1.41 0.04 0  1.44 0.04 0  1.47 0.04 0  1.5 0.04 0  0 0.06 0  0.03 0.06 0  0.06 0.06 0  0.09 0.06 0  0.12 0.06 0  0.15 0.06 0  0.18 0.06 0  0.21 0.06 0  0.24 0.06 0  0.27 0.06 0  0.3 0.06 0  0.33 0.06 0  0.36 0.06 0  0.39 0.06 0  0.42 0.06 0  0.45 0.06 0  0.48 0.06 0  0.51 0.06 0  0.54 0.06 0  0.57 0.06 0  0.6 0.06 0  0.63 0.06 0  0.66 0.06 0  0.6899999999999999 0.06 0  0.72 0.06 0  0.75 0.06 0  0.78 0.06 0  0.8100000000000001 0.06 0  0.84 0.06 0  0.87 0.06 0  0.9 0.06 0  0.93 0.06 0  0.96 0.06 0  0.99 0.06 0  1.02 0.06 0  1.05 0.06 0  1.08 0.06 0  1.11 0.06 0  1.14 0.06 0  1.17 0.06 0  1.2 0.06 0  1.23 0.06 0  1.26 0.06 0  1.29 0.06 0  1.32 0.06 0  1.35 0.06 0  1.38 0.06 0  1.41 0.06 0  1.44 0.06 0  1.47 0.06 0  1.5 0.06 0  0 0.08 0  0.03 0.08 0  0.06 0.08 0  0.09 0.08 0  0.12 0.08 0  0.15 0.08 0  0.18 0.08 0  0.21 0.08 0  0.24 0.08 0  0.27 0.08 0  0.3 0.08 0  0.33 0.08 0  0.36 0.08 0  0.39 0.08 0  0.42 0.08 0  0.45 0.08 0  0.48 0.08 0  0.51 0.08 0  0.54 0.08 0  0.57 0.08 0  0.6 0.08 0  0.63 0.08 0  0.66 0.08 0  0.6899999999999999 0.08 0  0.72 0.08 0  0.75 0.08 0  0.78 0.08 0  0.8100000000000001 0.08 0  0.84 0.08 0  0.87 0.08 0  0.9 0.08 0  0.93 0.08 0  0.96 0.08 0  0.99 0.08 0  1.02 0.08 0  1.05 0.08 0  1.08 0.08 0  1.11 0.08 0  1.14 0.08 0  1.17 0.08 0  1.2 0.08 0  1.23 0.08 0  1.26 0.08 0  1.29 0.08 0  1.32 0.08 0  1.35 0.08 0  1.38 0.08 0  1.41 0.08 0  1.44 0.08 0  1.47 0.08 0  1.5 0.08 0  0 0.1 0  0.03 0.1 0  0.06 0.1 0  0.09 0.1 0  0.12 0.1 0  0.15 0.1 0  0.18 0.1 0  0.21 0.1 0  0.24 0.1 0  0.27 0.1 0  0.3 0.1 0  0.33 0.1 0  0.36 0.1 0  0.39 0.1 0  0.42 0.1 0  0.45 0.1 0  0.48 0.1 0  0.51 0.1 0  0.54 0.1 0  0.57 0.1 0  0.6 0.1 0  0.63 0.1 0  0.66 0.1 0  0.6899999999999999 0.1 0  0.72 0.1 0  0.75 0.1 0  0.78 0.1 0  0.8100000000000001 0.1 0  0.84 0.1 0  0.87 0.1 0  0.9 0.1 0  0.93 0.1 0  0.96 0.1 0  0.99 0.1 0  1.02 0.1 0  1.05 0.1 0  1.08 0.1 0  1.11 0.1 0  1.14 0.1 0  1.17 0.1 0  1.2 0.1 0  1.23 0.1 0  1.26 0.1 0  1.29 0.1 0  1.32 0.1 0  1.35 0.1 0  1.38 0.1 0  1.41 0.1 0  1.44 0.1 0  1.47 0.1 0  1.5 0.1 0  0 0.12 0  0.03 0.12 0  0.06 0.12 0  0.09 0.12 0  0.12 0.12 0  0.15 0.12 0  0.18 0.12 0  0.21 0.12 0  0.24 0.12 0  0.27 0.12 0  0.3 0.12 0  0.33 0.12 0  0.36 0.12 0  0.39 0.12 0  0.42 0.12 0  0.45 0.12 0  0.48 0.12 0  0.51 0.12 0  0.54 0.12 0  0.57 0.12 0  0.6 0.12 0  0.63 0.12 0  0.66 0.12 0  0.6899999999999999 0.12 0  0.72 0.12 0  0.75 0.12 0  0.78 0.12 0  0.8100000000000001 0.12 0  0.84 0.12 0  0.87 0.12 0  0.9 0.12 0  0.93 0.12 0  0.96 0.12 0  0.99 0.12 0  1.02 0.12 0  1.05 0.12 0  1.08 0.12 0  1.11 0.12 0  1.14 0.12 0  1.17 0.12 0  1.2 0.12 0  1.23 0.12 0  1.26 0.12 0  1.29 0.12 0  1.32 0.12 0  1.35 0.12 0  1.38 0.12 0  1.41 0.12 0  1.44 0.12 0  1.47 0.12 0  1.5 0.12 0  0 0.14 0  0.03 0.14 0  0.06 0.14 0  0.09 0.14 0  0.12 0.14 0  0.15 0.14 0  0.18 0.14 0  0.21 0.14 0  0.24 0.14 0  0.27 0.14 0  0.3 0.14 0  0.33 0.14 0  0.36 0.14 0  0.39 0.14 0  0.42 0.14 0  0.45 0.14 0  0.48 0.14 0  0.51 0.14 0  0.54 0.14 0  0.57 0.14 0  0.6 0.14 0  0.63 0.14 0  0.66 0.14 0  0.6899999999999999 0.14 0  0.72 0.14 0  0.75 0.14 0  0.78 0.14 0  0.8100000000000001 0.14 0  0.84 0.14 0  0.87 0.14 0  0.9 0.14 0  0.93 0.14 0  0.96 0.14 0  0.99 0.14 0  1.02 0.14 0  1.05 0.14 0  1.08 0.14 0  1.11 0.14 0  1.14 0.14 0  1.17 0.14 0  1.2 0.14 0  1.23 0.14 0  1.26 0.14 0  1.29 0.14 0  1.32 0.14 0  1.35 0.14 0  1.38 0.14 0  1.41 0.14 0  1.44 0.14 0  1.47 0.14 0  1.5 0.14 0  0 0.16 0  0.03 0.16 0  0.06 0.16 0  0.09 0.16 0  0.12 0.16 0  0.15 0.16 0  0.18 0.16 0  0.21 0.16 0  0.24 0.16 0  0.27 0.16 0  0.3 0.16 0  0.33 0.16 0  0.36 0.16 0  0.39 0.16 0  0.42 0.16 0  0.45 0.16 0  0.48 0.16 0  0.51 0.16 0  0.54 0.16 0  0.57 0.16 0  0.6 0.16 0  0.63 0.16 0  0.66 0.16 0  0.6899999999999999 0.16 0  0.72 0.16 0  0.75 0.16 0  0.78 0.16 0  0.8100000000000001 0.16 0  0.84 0.16 0  0.87 0.16 0  0.9 0.16 0  0.93 0.16 0  0.96 0.16 0  0.99 0.16 0  1.02 0.16 0  1.05 0.16 0  1.08 0.16 0  1.11 0.16 0  1.14 0.16 0  1.17 0.16 0  1.2 0.16 0  1.23 0.16 0  1.26 0.16 0  1.29 0.16 0  1.32 0.16 0  1.35 0.16 0  1.38 0.16 0  1.41 0.16 0  1.44 0.16 0  1.47 0.16 0  1.5 0.16 0  0 0.18 0  0.03 0.18 0  0.06 0.18 0  0.09 0.18 0  0.12 0.18 0  0.15 0.18 0  0.18 0.18 0  0.21 0.18 0  0.24 0.18 0  0.27 0.18 0  0.3 0.18 0  0.33 0.18 0  0.36 0.18 0  0.39 0.18 0  0.42 0.18 0  0.45 0.18 0  0.48 0.18 0  0.51 0.18 0  0.54 0.18 0  0.57 0.18 0  0.6 0.18 0  0.63 0.18 0  0.66 0.18 0  0.6899999999999999 0.18 0  0.72 0.18 0  0.75 0.18 0  0.78 0.18 0  0.8100000000000001 0.18 0  0.84 0.18 0  0.87 0.18 0  0.9 0.18 0  0.93 0.18 0  0.96 0.18 0  0.99 0.18 0  1.02 0.18 0  1.05 0.18 0  1.08 0.18 0  1.11 0.18 0  1.14 0.18 0  1.17 0.18 0  1.2 0.18 0  1.23 0.18 0  1.26 0.18 0  1.29 0.18 0  1.32 0.18 0  1.35 0.18 0  1.38 0.18 0  1.41 0.18 0  1.44 0.18 0  1.47 0.18 0  1.5 0.18 0  0 0.2 0  0.03 0.2 0  0.06 0.2 0  0.09 0.2 0  0.12 0.2 0  0.15 0.2 0  0.18 0.2 0  0.21 0.2 0  0.24 0.2 0  0.27 0.2 0  0.3 0.2 0  0.33 0.2 0  0.36 0.2 0  0.39 0.2 0  0.42 0.2 0  0.45 0.2 0  0.48 0.2 0  0.51 0.2 0  0.54 0.2 0  0.57 0.2 0  0.6 0.2 0  0.63 0.2 0  0.66 0.2 0  0.6899999999999999 0.2 0  0.72 0.2 0  0.75 0.2 0  0.78 0.2 0  0.8100000000000001 0.2 0  0.84 0.2 0  0.87 0.2 0  0.9 0.2 0  0.93 0.2 0  0.96 0.2 0  0.99 0.2 0  1.02 0.2 0  1.05 0.2 0  1.08 0.2 0  1.11 0.2 0  1.14 0.2 0  1.17 0.2 0  1.2 0.2 0  1.23 0.2 0  1.26 0.2 0  1.29 0.2 0  1.32 0.2 0  1.35 0.2 0  1.38 0.2 0  1.41 0.2 0  1.44 0.2 0  1.47 0.2 0  1.5 0.2 0  0 0.22 0  0.03 0.22 0  0.06 0.22 0  0.09 0.22 0  0.12 0.22 0  0.15 0.22 0  0.18 0.22 0  0.21 0.22 0  0.24 0.22 0  0.27 0.22 0  0.3 0.22 0  0.33 0.22 0  0.36 0.22 0  0.39 0.22 0  0.42 0.22 0  0.45 0.22 0  0.48 0.22 0  0.51 0.22 0  0.54 0.22 0  0.57 0.22 0  0.6 0.22 0  0.63 0.22 0  0.66 0.22 0  0.6899999999999999 0.22 0  0.72 0.22 0  0.75 0.22 0  0.78 0.22 0  0.8100000000000001 0.22 0  0.84 0.22 0  0.87 0.22 0  0.9 0.22 0  0.93 0.22 0  0.96 0.22 0  0.99 0.22 0  1.02 0.22 0  1.05 0.22 0  1.08 0.22 0  1.11 0.22 0  1.14 0.22 0  1.17 0.22 0  1.2 0.22 0  1.23 0.22 0  1.26 0.22 0  1.29 0.22 0  1.32 0.22 0  1.35 0.22 0  1.38 0.22 0  1.41 0.22 0  1.44 0.22 0  1.47 0.22 0  1.5 0.22 0  0 0.24 0  0.03 0.24 0  0.06 0.24 0  0.09 0.24 0  0.12 0.24 0  0.15 0.24 0  0.18 0.24 0  0.21 0.24 0  0.24 0.24 0  0.27 0.24 0  0.3 0.24 0  0.33 0.24 0  0.36 0.24 0  0.39 0.24 0  0.42 0.24 0  0.45 0.24 0  0.48 0.24 0  0.51 0.24 0  0.54 0.24 0  0.57 0.24 0  0.6 0.24 0  0.63 0.24 0  0.66 0.24 0  0.6899999999999999 0.24 0  0.72 0.24 0  0.75 0.24 0  0.78 0.24 0  0.8100000000000001 0.24 0  0.84 0.24 0  0.87 0.24 0  0.9 0.24 0  0.93 0.24 0  0.96 0.24 0  0.99 0.24 0  1.02 0.24 0  1.05 0.24 0  1.08 0.24 0  1.11 0.24 0  1.14 0.24 0  1.17 0.24 0  1.2 0.24 0  1.23 0.24 0  1.26 0.24 0  1.29 0.24 0  1.32 0.24 0  1.35 0.24 0  1.38 0.24 0  1.41 0.24 0  1.44 0.24 0  1.47 0.24 0  1.5 0.24 0  0 0.26 0  0.03 0.26 0  0.06 0.26 0  0.09 0.26 0  0.12 0.26 0  0.15 0.26 0  0.18 0.26 0  0.21 0.26 0  0.24 0.26 0  0.27 0.26 0  0.3 0.26 0  0.33 0.26 0  0.36 0.26 0  0.39 0.26 0  0.42 0.26 0  0.45 0.26 0  0.48 0.26 0  0.51 0.26 0  0.54 0.26 0  0.57 0.26 0  0.6 0.26 0  0.63 0.26 0  0.66 0.26 0  0.6899999999999999 0.26 0  0.72 0.26 0  0.75 0.26 0  0.78 0.26 0  0.8100000000000001 0.26 0  0.84 0.26 0  0.87 0.26 0  0.9 0.26 0  0.93 0.26 0  0.96 0.26 0  0.99 0.26 0  1.02 0.26 0  1.05 0.26 0  1.08 0.26 0  1.11 0.26 0  1.14 0.26 0  1.17 0.26 0  1.2 0.26 0  1.23 0.26 0  1.26 0.26 0  1.29 0.26 0  1.32 0.26 0  1.35 0.26 0  1.38 0.26 0  1.41 0.26 0  1.44 0.26 0  1.47 0.26 0  1.5 0.26 0  0 0.28 0  0.03 0.28 0  0.06 0.28 0  0.09 0.28 0  0.12 0.28 0  0.15 0.28 0  0.18 0.28 0  0.21 0.28 0  0.24 0.28 0  0.27 0.28 0  0.3 0.28 0  0.33 0.28 0  0.36 0.28 0  0.39 0.28 0  0.42 0.28 0  0.45 0.28 0  0.48 0.28 0  0.51 0.28 0  0.54 0.28 0  0.57 0.28 0  0.6 0.28 0  0.63 0.28 0  0.66 0.28 0  0.6899999999999999 0.28 0  0.72 0.28 0  0.75 0.28 0  0.78 0.28 0  0.8100000000000001 0.28 0  0.84 0.28 0  0.87 0.28 0  0.9 0.28 0  0.93 0.28 0  0.96 0.28 0  0.99 0.28 0  1.02 0.28
[...]
<PointData  Scalars="ControlVisualisation"> 
<DataArray  type="Float64"  Name="ControlVisualisation"  format="ascii">1.9134087876253722e-05  1.2767773535924008e-05  1.2815470842227634e-05  1.2913470657612367e-05  1.3064358517283124e-05  1.3252053297543062e-05  1.3450686519116274e-05  1.3635700560818247e-05  1.3790409821791849e-05  1.3907315258335375e-05  1.3985876398086233e-05  1.4029669368382947e-05  1.4044418874042996e-05  1.4036724790713477e-05  1.4013121926122506e-05  1.3979447669275323e-05  1.3940542199444791e-05  1.3900195845110834e-05  1.3861225149128547e-05  1.3825604637205527e-05  1.3794625890952302e-05  1.3769068589846234e-05  1.3749364082295655e-05  1.3735731037060198e-05  1.3728271345750170e-05  1.3727026968856867e-05  1.3732006464637636e-05  1.3743189571028180e-05  1.3760511234888352e-05  1.3783818392695185e-05  1.3812789600105908e-05  1.3846812910277469e-05  1.3884829267949422e-05  1.3925158930602594e-05  1.3965331162626195e-05  1.4001935914748635e-05  1.4030529545213936e-05  1.4045657974926671e-05  1.4041082374874657e-05  1.4010264832272279e-05  1.3947028821027095e-05  1.3846555541411743e-05  1.3707237711599622e-05  1.3533454940365281e-05  1.3338236312779906e-05  1.3142940891176039e-05  1.2973270260505636e-05  1.2851371945244835e-05  1.2783764791906418e-05  1.2757209568587126e-05  3.8248547901674948e-05  1.2760375748673146e-05  6.3872309957521605e-06  6.4333926082789351e-06  6.5359978994953718e-06  6.7047957163635481e-06  6.9291643704748422e-06  7.1830451349352702e-06  7.4352053419084922e-06  7.6587608414481177e-06  7.8367878756777909e-06  7.9626137170932832e-06  8.0373147251217449e-06  8.0671082076460490e-06  8.0611055997597948e-06  8.0292889111438411e-06  7.9809737413198759e-06  7.9239795782314036e-06  7.8643901209747750e-06  7.8066448470778039e-06  7.7537729967079773e-06  7.7076818373504497e-06  7.6694576958640790e-06  7.6396456576754694e-06  7.6184773293958577e-06  7.6060304458137843e-06  7.6023235217627804e-06  7.6073615252710398e-06  7.6211486262606386e-06  7.6436734308425773e-06  7.6748579978220090e-06  7.7144531155663379e-06  7.7618654341388871e-06  7.8159171000057943e-06  7.8745573216346086e-06  7.9345556618511625e-06  7.9912087199022102e-06  8.0381216684620840e-06  8.0671894604655462e-06  8.0690058302477634e-06  8.0338151848620984e-06  7.9529064751775394e-06  7.8203441954288907e-06  7.6356050516682497e-06  7.4066461263695607e-06  7.1523553768544490e-06  6.9005925220313515e-06  6.6814493170196556e-06  6.5198375253938190e-06  6.4251592420848813e-06  6.3845343116147656e-06  1.2755690930418645e-05  1.2774731657367283e-05  6.4017912574054681e-06  6.4616391610440264e-06  6.5922469024391589e-06  6.8026960213193212e-06  7.0782529093492908e-06  7.3885829821857011e-06  7.6965342062400692e-06  7.9693421666528447e-06  8.1864145754097608e-06  8.3391923102822864e-06  8.4281363212022407e-06  8.4604177931193537e-06  8.4475087132029107e-06  8.4023322954976742e-06  8.3369561203587685e-06  8.2614169373971519e-06  8.1834369088637931e-06  8.1085749924522932e-06  8.0405427248890059e-06  7.9815883051695525e-06  7.9329063382258425e-06  7.8950231274709532e-06  7.8681063602703919e-06  7.8521729936760608e-06  7.8472034560142868e-06  7.8531915681403681e-06  7.8701586154905803e-06  7.8981413536028573e-06  7.9371393244507991e-06  7.9869906825998194e-06  8.0471493472578978e-06  8.1163612645125879e-06  8.1922740879638244e-06  8.2710231970587632e-06  8.3468284591303019e-06  8.4116701876056148e-06  8.4551961663178388e-06  8.4652834891194348e-06  8.4293332371756010e-06  8.3365762735202186e-06  8.1797515874651336e-06  7.9580813569719701e-06  7.6804693730166901e-06  7.3697365373242262e-06  7.0606421615764158e-06  6.7875782246278410e-06  6.5795928161674667e-06  6.4534690412256097e-06  6.3984622313296065e-06  1.2766040254910221e-05  1.2788749071711570e-05  6.4227554352643064e-06  6.5063981723696391e-06  6.6699926772111891e-06  6.9097303997518721e-06  7.2043800666059381e-06  7.5248193856451433e-06  7.8323930165718513e-06  8.0957143701473055e-06  8.2994497819179039e-06  8.4383594749767964e-06  8.5134626542654908e-06  8.5320792017076268e-06  8.5063195212088819e-06  8.4497417041796737e-06  8.3746616057392912e-06  8.2910807246664219e-06  8.2066045792839332e-06  8.1266664061453373e-06  8.0548218757412404e-06  7.9931132601176317e-06  7.9425015830866456e-06  7.9032996727869146e-06  7.8755192643016486e-06  7.8590867951336028e-06  7.8539419703690996e-06  7.8600677774004160e-06  7.8774976470218602e-06  7.9063152301425738e-06  7.9466234920403691e-06  7.9984332654131829e-06  8.0614262204776820e-06  8.1345892571948628e-06  8.2157841064209346e-06  8.3013183910886258e-06  8.3855658006024948e-06  8.4606006882068648e-06  8.5159453854816711e-06  8.5390334471907575e-06  8.5167580120648862e-06  8.4390872076872166e-06  8.2979270838007823e-06  8.0900568110644575e-06  7.8205268757809526e-06  7.5074481462823748e-06  7.1879811181426801e-06  6.8947261970668464e-06  6.6533219986075385e-06  6.4913011504215973e-06  6.4151179112995372e-06  1.2780613365862734e-05  1.2786240993305038e-05  6.4487137388567927e-06  6.5964272938675005e-06  6.8314307254619242e-06  7.1091329082677842e-06  7.4150415850602813e-06  7.7377191866796723e-06  8.0292366028265497e-06  8.2640596662272685e-06  8.4391198310290090e-06  8.5526800929944333e-06  8.6043874391835927e-06  8.6010478946258157e-06  8.5557966926426115e-06  8.4829919964759005e-06  8.3948949670243394e-06  8.3010609143263435e-06  8.2086865609551061e-06  8.1229012471485024e-06  8.0469615361177279e-06  7.9825477636249358e-06  7.9302262931046538e-06  7.8899645092822464e-06  7.8615380700237409e-06  7.8447506825861996e-06  7.8394955482671453e-06  7.8457442884233012e-06  7.8635397728602340e-06  7.8930184629359010e-06  7.9344240047822146e-06  7.9880275272423014e-06  8.0538743311124142e-06  8.1313472893584350e-06  8.2186595072642619e-06  8.3124449311933300e-06  8.4074662966384453e-06  8.4961240191382322e-06  8.5681015472831114e-06  8.6103971530348011e-06  8.6098222435441327e-06  8.5565621405885666e-06  8.4431844524011851e-06  8.2649952031510092e-06  8.0259502697190283e-06  7.7228037797616565e-06  7.4021754225716685e-06  7.1026294582853759e-06  6.8160464482126260e-06  6.5723423461059679e-06  6.4291925071669962e-06  1.2786065689860082e-05  1.2789569389347931e-05  6.5188279101350806e-06  6.9628424165316718e-06  7.5793730160291906e-06  7.8733002946267189e-06  7.9949665014087180e-06  8.1601724155315231e-06  8.3410939759333671e-06  8.5013841496587659e-06  8.6275954014533997e-06  8.7058512338600133e-06  8.7252583736735951e-06  8.6910108856919487e-06  8.6187121225077055e-06  8.5240652012278838e-06  8.4188123245003474e-06  8.3115623509660904e-06  8.2088870207685327e-06  8.1155542705651660e-06  8.0344560129158061e-06  7.9667634047425882e-06  7.9124551787685391e-06  7.8709913759214146e-06  7.8418255670302214e-06  7.8246204960855209e-06  7.8192342739804107e-06  7.8256328164868056e-06  7.8438560911642901e-06  7.8740812663395672e-06  7.9167196458464696e-06  7.9724032878302912e-06  8.0417136473479625e-06  8.1246186998586528e-06  8.2197962402140253e-06  8.3243204938445255e-06  8.4333973633314316e-06  8.5400850125588529e-06  8.6350928202478998e-06  8.7040296598537102e-06  8.7327389115313595e-06  8.7074598641783209e-06  8.6498645072156852e-06  8.5380718539252030e-06  8.4143294176548068e-06  8.2591203258366256e-06  8.1438278944123759e-06  7.9805099363052873e-06  7.3998224958646841e-06  6.7794486594198737e-06  6.4511940020364387e-06  1.2775109112102319e-05  1.3254640126194919e-05  7.0537321630620551e-06  9.6661596093957501e-06  1.7014799803318745e-05  2.2184928999508729e-05  1.5508382951665412e-05  1.1126801909929376e-05  9.3675011591237119e-06  8.9056464705784245e-06  8.8841965445997838e-06  8.9059803622038220e-06  8.8813519822281897e-06  8.8043373349241450e-06  8.6958846553904085e-06  8.5735283755714138e-06  8.4470185144111843e-06  8.3231477892976453e-06  8.2076703438280161e-06  8.1050508501590439e-06  8.0178134248073216e-06  7.9464336617773271e-06  7.8900234205452890e-06  7.8473140652354607e-06  7.8173464980250878e-06  7.7996564101287305e-06  7.7941126191011804e-06  7.8006932454723815e-06  7.8194047818044013e-06  7.8504157645632103e-06  7.8943040467038001e-06  7.9521791520279898e-06  8.0254011579235168e-06  8.1148071571520723e-06  8.2196312187378169e-06  8.3373853653779547e-06  8.4636985293562502e-06  8.5936664460840647e-06  8.7189155900451618e-06  8.8217651345820056e-06  8.8916028018863488e-06  8.9107192854878025e-06  8.9917870861515316e-06  9.1396365890015460e-06  9.8269993220645422e-06  1.1329108071200631e-05  1.4805667502979724e-05  2.1838137939248128e-05  1.7926325687304587e-05  1.0254263122259875e-05  6.9288296661419952e-06  1.2828750012835735e-05  1.4412418365181532e-05  1.5766955690200298e-05  2.9829467159513207e-02  5.7229691039504406e-02  5.3295643401711092e-02  3.3572911289067531e-02  1.0052998733537082e-02  3.1134333112704247e-05  1.1753867654349698e-05  9.5163950558850237e-06  9.1968376291082811e-06  9.0841350009891573e-06  8.9422636378823737e-06  8.7860677257968879e-06  8.6304112455256403e-06  8.4788687209073174e-06  8.3351604639006752e-06  8.2042341424104973e-06  8.0905413482240592e-06  7.9963613920842297e-06  7.9212002376699382e-06  7.8628591854706558e-06  7.8190216629149591e-06  7.7882303734636228e-06  7.7699732723272840e-06  7.7642364580984803e-06  7.7710496883476313e-06  7.7903245261829600e-06  7.8221022869706507e-06  7.8670708316339112e-06  7.9269498443851216e-06  8.0042235327413620e-06  8.1010700918720741e-06  8.2173683550553773e-06  8.3508164852166983e-06  8.4979008242174461e-06  8.6561321273817435e-06  8.8167390747924365e-06  8.9760992472142136e-06  9.1210128693770216e-06  9.2655758827494262e-06  1.0095037864338578e-05  1.2257306677968051e-05  2.4344992361428071e-05  7.1313523018799998e-03  2.9206896623466282e-02  5.0296849714667254e-02  5.7698763620331127e-02  4.1445898707951331e-02  1.6288550381789410e-05  1.4357868554018904e-05  3.1635802516111417e-05  8.9749498376092487e-02  2.0988262648406289e-01  2.1425730876489976e-01  1.8037783076623617e-01  1.3254742363362082e-01  8.2106697602626927e-02  3.7934287466019720e-02  5.7004176642437747e-03  1.6417354179733694e-05  1.0318784697693844e-05  9.4100958755397661e-06  9.1111024156427861e-06  8.8868523519775938e-06  8.6938236655445264e-06  8.5138605084218980e-06  8.3469709114267089e-06  8.1975808489784239e-06  8.0708279030271186e-06  7.9691507513837572e-06  7.8906022633950889e-06  7.8309185896652345e-06  7.7862623759394204e-06  7.7546256375700498e-06  7.7356562230054223e-06  7.7296637439069014e-06  7.7368050417694669e-06  7.7567877319646135e-06  7.7892835332438697e-06  7.8349320568031164e-06  7.8961760762591895e-06  7.9771451654659550e-06  8.0822604772970987e-06  8.2123863652178839e-06  8.3638101606040165e-06  8.5354892305926223e-06  8.7227927001375682e-06  8.9400233410285380e-06  9.2128255067351222e-06  9.6138795907220501e-06  1.0786824989711604e-05  1.6362700120059214e-05  3.2179321216410837e-03  3.1423734512770619e-02  7.5865192507453674e-02  1.2819710092296588e-01  1.7550044758654137e-01  2.0846741451885084e-01  2.0789949175831807e-01  1.1415902265595700e-01  2.3328450877167485e-05  4.0198122466350961e-01  4.6441811732301269e-01  4.9581810456847836e-01  4.2316268942191543e-01  3.5502897570547370e-01  2.7499011027796827e-01  1.9379968854879839e-01  1.1959611725638768e-01  6.0001388683612482e-02  1.7449037691136586e-02  2.9521173171219939e-05  1.1347581745224585e-05  9.4251883087025938e-06  9.0100828400095596e-06  8.7663677431446046e-06  8.5523538649245492e-06  8.3584088672219434e-06  8.1866734042761594e-06  8.0442722608027000e-06  7.9349308980854522e-06  7.8541737951575151e-06  7.7943412427644620e-06  7.7493814255883759e-06  7.7167781603554903e-06  7.6967922222328804e-06  7.6904219480317304e-06  7.6980780093917690e-06  7.7190994959598500e-06  7.7523192686091593e-06  7.7979815400619173e-06  7.8592856857450958e-06  7.9429084707662025e-06  8.0568106943501657e-06  8.2045143218580128e-06  8.3749995348037662e-06  8.5799355809192320e-06  8.8012926629072661e-06  9.1428495348178978e-06  9.8979076082263427e-06  1.1843118615931865e-05  2.3799121275980368e-05  1.1445540718010254e-02  5.3402453453477723e-02  1.1627305099334269e-01  1.8988112737788629e-01  2.7074575634673603e-01  3.5093253566722493e-01  4.1784238045501076e-01  4.4838517776784126e-01  4.6959712521288016e-01  3.5710992112889822e-01  9.9992218712723602e-01  9.8909261903554757e-01  7.8710686865151402e-01  6.6358922581042401e-01  5.5698824723040019e-01  4.4343489625000942e-01  3.3571875716418192e-01  2.3509848312945864e-01  1.4681693105978938e-01  7.6677465196975131e-02  2.7612179787845807e-02  2.1226439544209548e-04  1.2640212091154009e-05  9.4665168935767372e-06  8.8942556224830213e-06  8.6015350788270389e-06  8.3723393696276170e-06  8.1712901940268524e-06  8.0087612484728666e-06  7.8922992136853685e-06  7.8117170036538239e-06  7.7537496352480465e-06  7.7091651225967111e-06  7.6751528282990647e-06  7.6535303863958485e-06  7.6465820882433704e-06  7.6550717733044869e-06  7.6778713134429349e-06  7.7120360075045511e-06  7.7567957007172227e-06  7.8160418891937749e-06  7.9002747460135568e-06  8.0223236389768939e-06  8.1978331583576646e-06  8.3921871223630895e-06  8.6551790246227910e-06  8.9877107964712630e-06  1.0130024966270270e-05  1.3305639208444016e-05  5.1637399972445532e-05  2.2383624616025381e-02  7.1419537917846138e-02  1.4391110129751875e-01  2.3131443558224146e-01  3.3189520952677920e-01  4.4173173313273384e-01  5.4432995665195116e-01  6.5601195444337657e-01  8.0553985214021528e-01  9.9925988316282432e-01  9.9975239818602746e-01  9.9998426322344025e-01  9.9998626742101160e-01  9.9995123475635972e-01  9.0649052669500174e-01  7.4471352581467953e-01  6.1558954483231221e-01  4.8903732799864424e-01  3.6937383972300830e-01  2.6020986117238226e-01  1.6597633958074251e-01  9.1149604229741235e-02  3.8687953347820742e-02  5.5236347826190706e-03  1.6240355053983878e-05  9.9815167458440193e-06  8.8075766392992227e-06  8.4338897359126538e-06  8.1662773407954567e-06  7.9684818228532599e-06  7.8444301001235357e-06  7.7664855864033420e-06  7.7127102060565266e-06  7.6688612068195828e-06  7.6320387326099275e-06  7.6075658540644209e-06  7.5997191747304759e-06  7.6094553064299243e-06  7.6359200575438683e-06  7.6722117508273391e-06  7.7159174892748498e-06  7.7715156680597299e-06  7.8549285680551955e-06  7.9875681216433353e-06  8.2223951212809988e-06  8.4911268167746639e-06  9.1000365297124309e-06  1.0516702879102715e-05  1.6050423016913643e-05  2.9049707533369776e-03  3.2837463619163773e-02  8.7444160867404946e-02  1.6343179385152104e-01  2.5731131656314254e-01  3.6678481066016894e-01  4.8846832820318042e-01  6.1002736447629757e-01  7.4142373824377539e-01  9.3976440081739032e-01  9.9996768192807672e-01  9.9998775408566232e-01  9.9997843205933812e-01  9.9998959872243254e-01  9.9999308007410903e-01  9.9998613889573240e-01  9.9994675274243361e-01  9.1127379807209918e-01  7.6789870986355879e-01  6.3667839801376136e-01  5.0865347500283409e-01  3.8721229969608750e-01  2.7691010686644918e-01  1.8233254087832748e-01  1.0664373400425761e-01  5.2064827477635557e-02  1.6331299749572269e-02  4.1612117749562522e-05  1.2752629531752385e-05  9.5095288007241577e-06  8.4997263694659261e-06  8.0867084045825024e-06  7.8905325176171662e-06  7.7839976207675556e-06  7.7186176176305321e-06  7.6661129852927907e-06  7.6195464766829814e-06  7.5889547973678807e-06  7.5796846581284666e-06  7.5920109988803584e-06  7.6279741134771041e-06  7.6747565644060889e-06  7.7312019082160505e-06  7.8074698246305872e-06  7.9361012200390032e-06  8.1797050113434273e-06  8.8173266200658499e-06  9.9327813569090439e-06  1.2632627135110094e-05  3.2009480415873198e-05  1.1626198386630395e-02  4.7078872282573542e-02  1.0438775230649799e-01  1.7977168405898844e-01  2.7459902800363933e-01  3.8563686204181097e-01  5.0861050170576405e-01  6.3650017331036357e-01  7.6495707969062265e-01  9.3898242951822319e-01  9.9995850533142694e-01  9.9998654836289347e-01  9.9999306868190330e-01  9.9998877666190122e-01  9.9998899045022338e-01  9.9999360213752986e-01  9.9998940149912852e-01  9.9997585045650916e-01  9.9984411637894588e-01  8.8385617965090535e-01  7.6349127534032679e-01  6.3898408465535084e-01  5.1585514755549655e-01  3.9850330175222348e-01  2.9218490198560287e-01  2.0109153076171529e-01  1.2766277449789021e-01  7.3233023910161912e-02  3.6210847505973080e-02  1.1912929245986258e-02  6.2985054810636004e-05  1.6642348381773697e-05  1.1669493494393414e-05  1.0115655490256131e-05  9.3771381516694631e-06  8.9688243090191781e-06  8.7049418933359058e-06  8.5286335487066594e-06  8.4435731085995386e-06  8.4247642845896034e-06  8.4640685114474483e-06  8.5835460819789294e-06  8.7545006684140569e-06  9.0050487187789900e-06  9.4093864708381903e-06  1.0134036353853841e-05  1.1633848458085133e-05  1.6099117542505900e-05  4.9597624790023720e-05  8.8958195345758967e-03  3.1651534082204696e-02  7.0038781792555460e-02  1.2598171542653072e-01  1.9905880535837173e-01  2.9035507655921500e-01  3.9782749063621614e-01  5.1614586597715673e-01  6.4087085956248635e-01  7.6282740862567344e-01  8.9732170125079835e-01  9.9988931225374111e-01  9.9997570284203274e-01  9.9998902455591077e-01  9.9999344091344977e-01  9.9998965195297618e-01  9.9997992253281898e-01  9.9999041276424416e-01  9.9998605383765482e-01  9.9997491033787034e-01  9.9992604427688248e-01  9.6123496056274049e-01  8.5609316606637964e-01  7.4893188754287765e-01  6.3491060919219167e-01  5.2030700267677688e-01  4.1124747624113889e-01  3.1289247465464320e-01  2.2888294065541570e-01  1.6105066668686246e-01  1.0928647760881771e-01  7.2188675622733525e-02  4.6778120399631716e-02  2.8837832647047850e-02  1.6902252618767266e-02  9.0050120645177017e-03  4.6185321662675872e-03  1.6689808736214430e-03  3.9213109608169700e-04  1.2025730735813650e-04  8.0566221395698894e-05  7.2860655600122696e-05  7.9046458456007290e-05  1.1341052032852076e-04  3.2379440265571587e-04  1.4460755167896415e-03  4.3356555117920305e-03  8.1619574098123968e-03  1.5441279547944289e-02  2.6020967838419028e-02  4.3252616972968221e-02  7.0029627636034014e-02  1.0821050627158466e-01  1.5995341064163146e-01  2.2749146391465153e-01  3.1192815872421475e-01  4.1121422067947211e-01  5.2121851713994727e-01  6.3677620074020869e-01  7.5195556280305176e-01  8.5985716055990191e-01  9.7026286637448478e-01  9.9992281481269518e-01  9.9997229834520784e-01  9.9998485047499908e-01  9.9998978895871482e-01  9.9998487853191942e-01  9.9977083848642534e-01  9.9995686171549936e-01  9.9995444132281175e-01  9.9993733523815320e-01  9.9986423126041402e-01  9.8084554163667503e-01  9.0886200326280042e-01  8.3001296111121559e-01  7.3470840203771270e-01  6.3259999763933994e-01  5.2997269888292076e-01  4.3314559835476091e-01  3.4688178682953408e-01  2.7398474653545368e-01  2.1537722189620653e-01  1.7023816973758168e-01  1.3652606511444862e-01  1.1225499912607360e-01  9.5537987092841337e-02  8.3827156742045675e-02  7.5439204655099013e-02  6.9813821098721265e-02  6.6111849722564078e-02  6.3718349268756164e-02  6.2164929952272623e-02  6.1646632169565688e-02  6.1973922223374604e-02  6.3230492400061483e-02  6.5682833707836660e-02  6.9367014730959492e-02  7.4853083228396913e-02  8.3012451120288044e-02  9.4894378372473137e-02  1.1218936327411243e-01  1.3655760900991393e-01  1.6977127170550721e-01  2.1455055338771248e-01  2.7341833291473960e-01  3.4685796305813515e-01  4.3382617439790688e-01  5.3137480505574763e-01  6.3486332607043516e-01  7.3803134830707962e-01  8.3394436285534679e-01  9.1670351744392453e-01  9.8094785799259210e-01  9.9982997315142097e-01  9.9992867395671281e-01  9.9995435944343170e-01  9.9996271162557071e-01  9.9993985898600346e-01  3.3936561159088918e-01  6.4706439428698059e-01  8.0587495303631407e-01  9.0138675252030087e-01  9.4152940252782014e-01  9.4467153799218906e-01  9.2246774283121691e-01  8.7650616575775064e-01  8.0818644002748263e-01  7.2695619727585514e-01  6.3943765310839717e-01  5.5281794214605851e-01  4.727875022