<?xml version="1.0"?>
<VTKFile type="UnstructuredGrid"  version="0.1"  >
<UnstructuredGrid>
<Piece  NumberOfPoints="2601" NumberOfCells="5000">
<Points>
<DataArray  type="Float64"  NumberOfComponents="3"  format="ascii">0 0 0  0.03 0 0  0.06 0 0  0.09 0 0  0.12 0 0  0.15 0 0  0.18 0 0  0.21 0 0  0.24 0 0  0.27 0 0  0.3 0 0  0.33 0 0  0.36 0 0  0.39 0 0  0.42 0 0  0.45 0 0  0.48 0 0  0.51 0 0  0.54 0 0  0.57 0 0  0.6 0 0  0.63 0 0  0.66 0 0  0.6899999999999999 0 0  0.72 0 0  0.75 0 0  0.78 0 0  0.8100000000000001 0 0  0.84 0 0  0.87 0 0  0.9 0 0  0.93 0 0  0.96 0 0  0.99 0 0  1.02 0 0  1.05 0 0  1.08 0 0  1.11 0 0  1.14 0 0  1.17 0 0  1.2 0 0  1.23 0 0  1.26 0 0  1.29 0 0  1.32 0 0  1.35 0 0  1.38 0 0  1.41 0 0  1.44 0 0  1.47 0 0  1.5 0 0  0 0.02 0  0.03 0.02 0  0.06 0.02 0  0.09 0.02 0  0.12 0.02 0  0.15 0.02 0  0.18 0.02 0  0.21 0.02 0  0.24 0.02 0  0.27 0.02 0  0.3 0.02 0  0.33 0.02 0  0.36 0.02 0  0.39 0.02 0  0.42 0.02 0  0.45 0.02 0  0.48 0.02 0  0.51 0.02 0  0.54 0.02 0  0.57 0.02 0  0.6 0.02 0  0.63 0.02 0  0.66 0.02 0  0.6899999999999999 0.02 0  0.72 0.02 0  0.75 0.02 0  0.78 0.02 0  0.8100000000000001 0.02 0  0.84 0.02 0  0.87 0.02 0  0.9 0.02 0  0.93 0.02 0  0.96 0.02 0  0.99 0.02 0  1.02 0.02 0  1.05 0.02 0  1.08 0.02 0  1.11 0.02 0  1.14 0.02 0  1.17 0.02 0  1.2 0.02 0  1.23 0.02 0  1.26 0.02 0  1.29 0.02 0  1.32 0.02 0  1.35 0.02 0  1.38 0.02 0  1.41 0.02 0  1.44 0.02 0  1.47 0.02 0  1.5 0.02 0  0 0.04 0  0.03 0.04 0  0.06 0.04 0  0.09 0.04 0  0.12 0.04 0  0.15 0.04 0  0.18 0.04 0  0.21 0.04 0  0.24 0.04 0  0.27 0.04 0  0.3 0.04 0  0.33 0.04 0  0.36 0.04 0  0.39 0.04 0  0.42 0.04 0  0.45 0.04 0  0.48 0.04 0  0.51 0.04 0  0.54 0.04 0  0.57 0.04 0  0.6 0.04 0  0.63 0.04 0  0.66 0.04 0  0.6899999999999999 0.04 0  0.72 0.04 0  0.75 0.04 0  0.78 0.04 0  0.8100000000000001 0.04 0  0.84 0.04 0  0.87 0.04 0  0.9 0.04 0  0.93 0.04 0  0.96 0.04 0  0.99 0.04 0  1.02 0.04 0  1.05 0.04 0  1.08 0.04 0  1.11 0.04 0  1.14 0.04 0  1.17 0.04 0  1.2 0.04 0  1.23 0.04 0  1.26 0.04 0  1.29 0.04 0  1.32 0.04 0  1.35 0.04 0  1.38 0.04 0  1.41 0.04 0  1.44 0.04 0  1.47 0.04 0  1.5 0.04 0  0 0.06 0  0.03 0.06 0  0.06 0.06 0  0.09 0.06 0  0.12 0.06 0  0.15 0.06 0  0.18 0.06 0  0.21 0.06 0  0.24 0.06 0  0.27 0.06 0  0.3 0.06 0  0.33 0.06 0  0.36 0.06 0  0.39 0.06 0  0.42 0.06 0  0.45 0.06 0  0.48 0.06 0  0.51 0.06 0  0.54 0.06 0  0.57 0.06 0  0.6 0.06 0  0.63 0.06 0  0.66 0.06 0  0.6899999999999999 0.06 0  0.72 0.06 0  0.75 0.06 0  0.78 0.06 0  0.8100000000000001 0.06 0  0.84 0.06 0  0.87 0.06 0  0.9 0.06 0  0.93 0.06 0  0.96 0.06 0  0.99 0.06 0  1.02 0.06 0  1.05 0.06 0  1.08 0.06 0  1.11 0.06 0  1.14 0.06 0  1.17 0.06 0  1.2 0.06 0  1.23 0.06 0  1.26 0.06 0  1.29 0.06 0  1.32 0.06 0  1.35 0.06 0  1.38 0.06 0  1.41 0.06 0  1.44 0.06 0  1.47 0.06 0  1.5 0.06 0  0 0.08 0  0.03 0.08 0  0.06 0.08 0  0.09 0.08 0  0.12 0.08 0  0.15 0.08 0  0.18 0.08 0  0.21 0.08 0  0.24 0.08 0  0.27 0.08 0  0.3 0.08 0  0.33 0.08 0  0.36 0.08 0  0.39 0.08 0  0.42 0.08 0  0.45 0.08 0  0.48 0.08 0  0.51 0.08 0  0.54 0.08 0  0.57 0.08 0  0.6 0.08 0  0.63 0.08 0  0.66 0.08 0  0.6899999999999999 0.08 0  0.72 0.08 0  0.75 0.08 0  0.78 0.08 0  0.8100000000000001 0.08 0  0.84 0.08 0  0.87 0.08 0  0.9 0.08 0  0.93 0.08 0  0.96 0.08 0  0.99 0.08 0  1.02 0.08 0  1.05 0.08 0  1.08 0.08 0  1.11 0.08 0  1.14 0.08 0  1.17 0.08 0  1.2 0.08 0  1.23 0.08 0  1.26 0.08 0  1.29 0.08 0  1.32 0.08 0  1.35 0.08 0  1.38 0.08 0  1.41 0.08 0  1.44 0.08 0  1.47 0.08 0  1.5 0.08 0  0 0.1 0  0.03 0.1 0  0.06 0.1 0  0.09 0.1 0  0.12 0.1 0  0.15 0.1 0  0.18 0.1 0  0.21 0.1 0  0.24 0.1 0  0.27 0.1 0  0.3 0.1 0  0.33 0.1 0  0.36 0.1 0  0.39 0.1 0  0.42 0.1 0  0.45 0.1 0  0.48 0.1 0  0.51 0.1 0  0.54 0.1 0  0.57 0.1 0  0.6 0.1 0  0.63 0.1 0  0.66 0.1 0  0.6899999999999999 0.1 0  0.72 0.1 0  0.75 0.1 0  0.78 0.1 0  0.8100000000000001 0.1 0  0.84 0.1 0  0.87 0.1 0  0.9 0.1 0  0.93 0.1 0  0.96 0.1 0  0.99 0.1 0  1.02 0.1 0  1.05 0.1 0  1.08 0.1 0  1.11 0.1 0  1.14 0.1 0  1.17 0.1 0  1.2 0.1 0  1.23 0.1 0  1.26 0.1 0  1.29 0.1 0  1.32 0.1 0  1.35 0.1 0  1.38 0.1 0  1.41 0.1 0  1.44 0.1 0  1.47 0.1 0  1.5 0.1 0  0 0.12 0  0.03 0.12 0  0.06 0.12 0  0.09 0.12 0  0.12 0.12 0  0.15 0.12 0  0.18 0.12 0  0.21 0.12 0  0.24 0.12 0  0.27 0.12 0  0.3 0.12 0  0.33 0.12 0  0.36 0.12 0  0.39 0.12 0  0.42 0.12 0  0.45 0.12 0  0.48 0.12 0  0.51 0.12 0  0.54 0.12 0  0.57 0.12 0  0.6 0.12 0  0.63 0.12 0  0.66 0.12 0  0.6899999999999999 0.12 0  0.72 0.12 0  0.75 0.12 0  0.78 0.12 0  0.8100000000000001 0.12 0  0.84 0.12 0  0.87 0.12 0  0.9 0.12 0  0.93 0.12 0  0.96 0.12 0  0.99 0.12 0  1.02 0.12 0  1.05 0.12 0  1.08 0.12 0  1.11 0.12 0  1.14 0.12 0  1.17 0.12 0  1.2 0.12 0  1.23 0.12 0  1.26 0.12 0  1.29 0.12 0  1.32 0.12 0  1.35 0.12 0  1.38 0.12 0  1.41 0.12 0  1.44 0.12 0  1.47 0.12 0  1.5 0.12 0  0 0.14 0  0.03 0.14 0  0.06 0.14 0  0.09 0.14 0  0.12 0.14 0  0.15 0.14 0  0.18 0.14 0  0.21 0.14 0  0.24 0.14 0  0.27 0.14 0  0.3 0.14 0  0.33 0.14 0  0.36 0.14 0  0.39 0.14 0  0.42 0.14 0  0.45 0.14 0  0.48 0.14 0  0.51 0.14 0  0.54 0.14 0  0.57 0.14 0  0.6 0.14 0  0.63 0.14 0  0.66 0.14 0  0.6899999999999999 0.14 0  0.72 0.14 0  0.75 0.14 0  0.78 0.14 0  0.8100000000000001 0.14 0  0.84 0.14 0  0.87 0.14 0  0.9 0.14 0  0.93 0.14 0  0.96 0.14 0  0.99 0.14 0  1.02 0.14 0  1.05 0.14 0  1.08 0.14 0  1.11 0.14 0  1.14 0.14 0  1.17 0.14 0  1.2 0.14 0  1.23 0.14 0  1.26 0.14 0  1.29 0.14 0  1.32 0.14 0  1.35 0.14 0  1.38 0.14 0  1.41 0.14 0  1.44 0.14 0  1.47 0.14 0  1.5 0.14 0  0 0.16 0  0.03 0.16 0  0.06 0.16 0  0.09 0.16 0  0.12 0.16 0  0.15 0.16 0  0.18 0.16 0  0.21 0.16 0  0.24 0.16 0  0.27 0.16 0  0.3 0.16 0  0.33 0.16 0  0.36 0.16 0  0.39 0.16 0  0.42 0.16 0  0.45 0.16 0  0.48 0.16 0  0.51 0.16 0  0.54 0.16 0  0.57 0.16 0  0.6 0.16 0  0.63 0.16 0  0.66 0.16 0  0.6899999999999999 0.16 0  0.72 0.16 0  0.75 0.16 0  0.78 0.16 0  0.8100000000000001 0.16 0  0.84 0.16 0  0.87 0.16 0  0.9 0.16 0  0.93 0.16 0  0.96 0.16 0  0.99 0.16 0  1.02 0.16 0  1.05 0.16 0  1.08 0.16 0  1.11 0.16 0  1.14 0.16 0  1.17 0.16 0  1.2 0.16 0  1.23 0.16 0  1.26 0.16 0  1.29 0.16 0  1.32 0.16 0  1.35 0.16 0  1.38 0.16 0  1.41 0.16 0  1.44 0.16 0  1.47 0.16 0  1.5 0.16 0  0 0.18 0  0.03 0.18 0  0.06 0.18 0  0.09 0.18 0  0.12 0.18 0  0.15 0.18 0  0.18 0.18 0  0.21 0.18 0  0.24 0.18 0  0.27 0.18 0  0.3 0.18 0  0.33 0.18 0  0.36 0.18 0  0.39 0.18 0  0.42 0.18 0  0.45 0.18 0  0.48 0.18 0  0.51 0.18 0  0.54 0.18 0  0.57 0.18 0  0.6 0.18 0  0.63 0.18 0  0.66 0.18 0  0.6899999999999999 0.18 0  0.72 0.18 0  0.75 0.18 0  0.78 0.18 0  0.8100000000000001 0.18 0  0.84 0.18 0  0.87 0.18 0  0.9 0.18 0  0.93 0.18 0  0.96 0.18 0  0.99 0.18 0  1.02 0.18 0  1.05 0.18 0  1.08 0.18 0  1.11 0.18 0  1.14 0.18 0  1.17 0.18 0  1.2 0.18 0  1.23 0.18 0  1.26 0.18 0  1.29 0.18 0  1.32 0.18 0  1.35 0.18 0  1.38 0.18 0  1.41 0.18 0  1.44 0.18 0  1.47 0.18 0  1.5 0.18 0  0 0.2 0  0.03 0.2 0  0.06 0.2 0  0.09 0.2 0  0.12 0.2 0  0.15 0.2 0  0.18 0.2 0  0.21 0.2 0  0.24 0.2 0  0.27 0.2 0  0.3 0.2 0  0.33 0.2 0  0.36 0.2 0  0.39 0.2 0  0.42 0.2 0  0.45 0.2 0  0.48 0.2 0  0.51 0.2 0  0.54 0.2 0  0.57 0.2 0  0.6 0.2 0  0.63 0.2 0  0.66 0.2 0  0.6899999999999999 0.2 0  0.72 0.2 0  0.75 0.2 0  0.78 0.2 0  0.8100000000000001 0.2 0  0.84 0.2 0  0.87 0.2 0  0.9 0.2 0  0.93 0.2 0  0.96 0.2 0  0.99 0.2 0  1.02 0.2 0  1.05 0.2 0  1.08 0.2 0  1.11 0.2 0  1.14 0.2 0  1.17 0.2 0  1.2 0.2 0  1.23 0.2 0  1.26 0.2 0  1.29 0.2 0  1.32 0.2 0  1.35 0.2 0  1.38 0.2 0  1.41 0.2 0  1.44 0.2 0  1.47 0.2 0  1.5 0.2 0  0 0.22 0  0.03 0.22 0  0.06 0.22 0  0.09 0.22 0  0.12 0.22 0  0.15 0.22 0  0.18 0.22 0  0.21 0.22 0  0.24 0.22 0  0.27 0.22 0  0.3 0.22 0  0.33 0.22 0  0.36 0.22 0  0.39 0.22 0  0.42 0.22 0  0.45 0.22 0  0.48 0.22 0  0.51 0.22 0  0.54 0.22 0  0.57 0.22 0  0.6 0.22 0  0.63 0.22 0  0.66 0.22 0  0.6899999999999999 0.22 0  0.72 0.22 0  0.75 0.22 0  0.78 0.22 0  0.8100000000000001 0.22 0  0.84 0.22 0  0.87 0.22 0  0.9 0.22 0  0.93 0.22 0  0.96 0.22 0  0.99 0.22 0  1.02 0.22 0  1.05 0.22 0  1.08 0.22 0  1.11 0.22 0  1.14 0.22 0  1.17 0.22 0  1.2 0.22 0  1.23 0.22 0  1.26 0.22 0  1.29 0.22 0  1.32 0.22 0  1.35 0.22 0  1.38 0.22 0  1.41 0.22 0  1.44 0.22 0  1.47 0.22 0  1.5 0.22 0  0 0.24 0  0.03 0.24 0  0.06 0.24 0  0.09 0.24 0  0.12 0.24 0  0.15 0.24 0  0.18 0.24 0  0.21 0.24 0  0.24 0.24 0  0.27 0.24 0  0.3 0.24 0  0.33 0.24 0  0.36 0.24 0  0.39 0.24 0  0.42 0.24 0  0.45 0.24 0  0.48 0.24 0  0.51 0.24 0  0.54 0.24 0  0.57 0.24 0  0.6 0.24 0  0.63 0.24 0  0.66 0.24 0  0.6899999999999999 0.24 0  0.72 0.24 0  0.75 0.24 0  0.78 0.24 0  0.8100000000000001 0.24 0  0.84 0.24 0  0.87 0.24 0  0.9 0.24 0  0.93 0.24 0  0.96 0.24 0  0.99 0.24 0  1.02 0.24 0  1.05 0.24 0  1.08 0.24 0  1.11 0.24 0  1.14 0.24 0  1.17 0.24 0  1.2 0.24 0  1.23 0.24 0  1.26 0.24 0  1.29 0.24 0  1.32 0.24 0  1.35 0.24 0  1.38 0.24 0  1.41 0.24 0  1.44 0.24 0  1.47 0.24 0  1.5 0.24 0  0 0.26 0  0.03 0.26 0  0.06 0.26 0  0.09 0.26 0  0.12 0.26 0  0.15 0.26 0  0.18 0.26 0  0.21 0.26 0  0.24 0.26 0  0.27 0.26 0  0.3 0.26 0  0.33 0.26 0  0.36 0.26 0  0.39 0.26 0  0.42 0.26 0  0.45 0.26 0  0.48 0.26 0  0.51 0.26 0  0.54 0.26 0  0.57 0.26 0  0.6 0.26 0  0.63 0.26 0  0.66 0.26 0  0.6899999999999999 0.26 0  0.72 0.26 0  0.75 0.26 0  0.78 0.26 0  0.8100000000000001 0.26 0  0.84 0.26 0  0.87 0.26 0  0.9 0.26 0  0.93 0.26 0  0.96 0.26 0  0.99 0.26 0  1.02 0.26 0  1.05 0.26 0  1.08 0.26 0  1.11 0.26 0  1.14 0.26 0  1.17 0.26 0  1.2 0.26 0  1.23 0.26 0  1.26 0.26 0  1.29 0.26 0  1.32 0.26 0  1.35 0.26 0  1.38 0.26 0  1.41 0.26 0  1.44 0.26 0  1.47 0.26 0  1.5 0.26 0  0 0.28 0  0.03 0.28 0  0.06 0.28 0  0.09 0.28 0  0.12 0.28 0  0.15 0.28 0  0.18 0.28 0  0.21 0.28 0  0.24 0.28 0  0.27 0.28 0  0.3 0.28 0  0.33 0.28 0  0.36 0.28 0  0.39 0.28 0  0.42 0.28 0  0.45 0.28 0  0.48 0.28 0  0.51 0.28 0  0.54 0.28 0  0.57 0.28 0  0.6 0.28 0  0.63 0.28 0  0.66 0.28 0  0.6899999999999999 0.28 0  0.72 0.28 0  0.75 0.28 0  0.78 0.28 0  0.8100000000000001 0.28 0  0.84 0.28 0  0.87 0.28 0  0.9 0.28 0  0.93 0.28 0  0.96 0.28 0  0.99 0.28 0  1.02 0.28
[...]
<PointData  Scalars="ControlVisualisation"> 
<DataArray  type="Float64"  Name="ControlVisualisation"  format="ascii">1.1512994767598165e-03  7.6872635802609300e-04  7.7149846588495856e-04  7.7719797566079790e-04  7.8596910390493638e-04  7.9684540406376749e-04  8.0830420218960840e-04  8.1894256095630562e-04  8.2783460513660906e-04  8.3457391019681106e-04  8.3913971909388093e-04  8.4173956297113378e-04  8.4269652197908526e-04  8.4237592098559456e-04  8.4113631473501228e-04  8.3929944108087522e-04  8.3713587815612174e-04  8.3486156400478830e-04  8.3264062428563691e-04  8.3059158478698738e-04  8.2879534578884874e-04  8.2730379808723870e-04  8.2614805847629257e-04  8.2534547196421490e-04  8.2490489565658276e-04  8.2483017698375299e-04  8.2512197200917210e-04  8.2577806305013542e-04  8.2679219814541438e-04  8.2815131240299318e-04  8.2983093702094720e-04  8.3178876683478217e-04  8.3395674599386516e-04  8.3623243945618098e-04  8.3847071679219592e-04  8.4047689642920240e-04  8.4200273490093384e-04  8.4274726164568789e-04  8.4236587494073269e-04  8.4049320225798715e-04  8.3678232986867870e-04  8.3096712048404576e-04  8.2295791218833607e-04  8.1298636426398684e-04  8.0175892539207001e-04  7.9047757773120222e-04  7.8064346631033803e-04  7.7357017847499087e-04  7.6965072039904226e-04  7.6810867970813026e-04  2.2883754620576457e-03  7.6829662839911878e-04  3.8496244436544291e-04  3.8771764184438600e-04  3.9384379619506767e-04  4.0392518640846973e-04  4.1729386352249250e-04  4.3235917974483967e-04  4.4727283082318631e-04  4.6048508368989665e-04  4.7103181815892197e-04  4.7853656197728540e-04  4.8306929256615162e-04  4.8499143496969638e-04  4.8482048393910549e-04  4.8311822237295744e-04  4.8041185129200751e-04  4.7715091973086793e-04  4.7369234025956695e-04  4.7030265436908282e-04  4.6716923030656638e-04  4.6441536911537751e-04  4.6211630891786551e-04  4.6031406545793060e-04  4.5902972213969777e-04  4.5827253986977288e-04  4.5804593986227955e-04  4.5835077530054924e-04  4.5918629430795701e-04  4.6054892327343608e-04  4.6242864715337101e-04  4.6480252381465967e-04  4.6762493882058202e-04  4.7081469114332818e-04  4.7423976034902820e-04  4.7770133718626450e-04  4.8091928322410151e-04  4.8352247244572128e-04  4.8504922218424646e-04  4.8496639966223406e-04  4.8271642130653394e-04  4.7779744929388461e-04  4.6987840964401924e-04  4.5894086224380242e-04  4.4543608420294145e-04  4.3042313635046253e-04  4.1550074121508818e-04  4.0246771369442723e-04  3.9284606250870635e-04  3.8721374693323707e-04  3.8479672405929789e-04  7.6802157399327243e-04  7.6912948400539567e-04  3.8582813036752852e-04  3.8942246438022817e-04  3.9727585123728438e-04  4.0994750989093413e-04  4.2649921136930200e-04  4.4505720801906151e-04  4.6342834702169480e-04  4.7972042695208945e-04  4.9273281252522577e-04  5.0195894492831468e-04  5.0743324620092397e-04  5.0958037309134160e-04  5.0905649044595894e-04  5.0659237811302650e-04  5.0287716275868759e-04  4.9849597984193616e-04  4.9390918890154594e-04  4.8945586391510359e-04  4.8536943633313719e-04  4.8179868227671003e-04  4.7883000399003890e-04  4.7650800790459137e-04  4.7485226788587180e-04  4.7386941197717224e-04  4.7356081156712013e-04  4.7392669321181982e-04  4.7496740069278697e-04  4.7668204685250416e-04  4.7906418951722691e-04  4.8209370317654705e-04  4.8572401972582719e-04  4.8986464105950725e-04  4.9436020341571852e-04  4.9896823826083188e-04  5.0333844556295240e-04  5.0699883540124735e-04  5.0935505520182582e-04  5.0971544677818248e-04  5.0735255909400837e-04  5.0162583936065889e-04  4.9213021319430132e-04  4.7885851056073776e-04  4.6233631602392181e-04  4.4385398455746428e-04  4.2538275478591842e-04  4.0899414949722063e-04  3.9650210184241375e-04  3.8893245876348796e-04  3.8562931562861744e-04  7.6862543774815629e-04  7.6993336676782400e-04  3.8706500547717039e-04  3.9209359581892018e-04  4.0195373221764587e-04  4.1645124247479949e-04  4.3416956578201703e-04  4.5327664664572797e-04  4.7159193685753609e-04  4.8734360369133775e-04  4.9959435407785960e-04  5.0800238699483659e-04  5.1265042621644931e-04  5.1399103985980978e-04  5.1271449237373884e-04  5.0957736846078520e-04  5.0527990121448224e-04  5.0040838460505899e-04  4.9541965517481531e-04  4.9064664585516792e-04  4.8631417419949143e-04  4.8256018947433405e-04  4.7945935620776435e-04  4.7704545224458173e-04  4.7532948370683785e-04  4.7431224422294212e-04  4.7399185392183802e-04  4.7436757434494905e-04  4.7544097843996104e-04  4.7721482248545838e-04  4.7968909846065932e-04  4.8285302836997872e-04  4.8667164603166419e-04  4.9106667801462325e-04  4.9589383682386949e-04  5.0091928116106606e-04  5.0579894009853842e-04  5.1006442458728044e-04  5.1311856220166002e-04  5.1425619951530070e-04  5.1272462117595138e-04  5.0787795379012663e-04  4.9924959752452346e-04  4.8676417164611224e-04  4.7072192728125006e-04  4.5218429394981149e-04  4.3311965545114267e-04  4.1546100867470082e-04  4.0092615970367250e-04  3.9119151373028991e-04  3.8661361188166790e-04  7.6946932185966463e-04  7.6978401354723736e-04  3.8861120284004578e-04  3.9750557652195359e-04  4.1176710574292234e-04  4.2880618212875929e-04  4.4715823453827440e-04  4.6611924854060251e-04  4.8336544845031272e-04  4.9747048023116372e-04  5.0805863985204161e-04  5.1493613755549121e-04  5.1815928040544151e-04  5.1819515173610030e-04  5.1577690094776010e-04  5.1168068251767403e-04  5.0659935589902135e-04  5.0110106538558854e-04  4.9562371466243963e-04  4.9048236874333370e-04  4.8588339274479594e-04  4.8194469688454605e-04  4.7872079911060508e-04  4.7622792470194757e-04  4.7446393376447611e-04  4.7342111951464261e-04  4.7309304782855785e-04  4.7347761765632098e-04  4.7457798720952420e-04  4.7640188229047283e-04  4.7895853016630423e-04  4.8225133699144213e-04  4.8626388675043108e-04  4.9093834561397289e-04  4.9614998610039349e-04  5.0168332286060387e-04  5.0721282306432941e-04  5.1228409973753334e-04  5.1631572755724258e-04  5.1861492807213653e-04  5.1842351859198658e-04  5.1505063106950251e-04  5.0794953405529429e-04  4.9723968688458861e-04  4.8299254449233871e-04  4.6534211396677855e-04  4.4638392220051741e-04  4.2814558765825078e-04  4.1072077776899618e-04  3.9605528967180979e-04  3.8745433022770496e-04  7.6977851092914636e-04  7.6999770060885470e-04  3.9276442467088893e-04  4.1939635317989803e-04  4.5666538064378606e-04  4.7656174232930465e-04  4.8422688653602366e-04  4.9256408293103804e-04  5.0243975073474231e-04  5.1192099469281164e-04  5.1957462094444286e-04  5.2422803184138159e-04  5.2543830513536243e-04  5.2364813923745656e-04  5.1966397394347303e-04  5.1427869399704219e-04  5.0815825418915679e-04  5.0183647113337610e-04  4.9572244768641310e-04  4.9010692229296761e-04  4.8517137853928982e-04  4.8100535051259064e-04  4.7763413816521316e-04  4.7504895473991093e-04  4.7322973566144141e-04  4.7215778578869817e-04  4.7182104654380899e-04  4.7221573263331876e-04  4.7334680342142577e-04  4.7522803732876688e-04  4.7788060338030657e-04  4.8132739112431472e-04  4.8557861614092291e-04  4.9060614584577533e-04  4.9631231335569930e-04  5.0250752498588844e-04  5.0888849821704703e-04  5.1502232429849731e-04  5.2038711553398459e-04  5.2428806261290177e-04  5.2592643263241440e-04  5.2453556147171333e-04  5.2032299344994355e-04  5.1374318949422922e-04  5.0655079732092535e-04  4.9875156620650916e-04  4.9275311478683159e-04  4.8202821484433976e-04  4.4633540291690401e-04  4.0856975884514163e-04  3.8880796764270096e-04  7.6914111053092500e-04  7.9508145800257770e-04  4.2437430726414662e-04  5.8285401260292288e-04  1.0058376353338887e-03  1.2961050373573558e-03  9.4536535423884517e-04  6.8122392040238756e-04  5.6974544730077376e-04  5.3871397393607634e-04  5.3589654572976813e-04  5.3646734550152550e-04  5.3476241639348473e-04  5.3048882142791578e-04  5.2445741136686514e-04  5.1743376478831328e-04  5.1000913458987274e-04  5.0266005227870506e-04  4.9575639023270832e-04  4.8955967308149601e-04  4.8422116913519544e-04  4.7979190828559564e-04  4.7625583146990375e-04  4.7356983716831781e-04  4.7169093838530097e-04  4.7058750958112221e-04  4.7024135018528793e-04  4.7064684568914438e-04  4.7181066883454067e-04  4.7375309491955257e-04  4.7650937962148454e-04  4.8012768315042746e-04  4.8465549350025147e-04  4.9010743173091148e-04  4.9641928514133817e-04  5.0343358418053323e-04  5.1087558382830042e-04  5.1836990496235611e-04  5.2543954277832201e-04  5.3134849228293497e-04  5.3570696747855143e-04  5.3793539177048814e-04  5.4109320869552319e-04  5.5204331335995029e-04  5.9590291048455259e-04  6.9289360355116703e-04  9.0739539565368242e-04  1.2763539050963271e-03  1.0607015406297587e-03  6.1650231894913403e-04  4.1643130746499139e-04  7.7227456678146311e-04  8.6289704364552518e-04  9.1911202989425041e-04  3.1060216161392332e-02  5.8501047881125673e-02  5.4617219206069129e-02  3.5565937006978146e-02  1.3132060122654993e-02  1.7683600848267796e-03  7.2661616534576987e-04  5.8092013630996414e-04  5.5530900437184613e-04  5.4682438552020464e-04  5.3880791802073352e-04  5.3014087198621340e-04  5.2111376046137033e-04  5.1211290889196994e-04  5.0352801846279189e-04  4.9567885797028102e-04  4.8879574156554268e-04  4.8299773008733665e-04  4.7828365511206076e-04  4.7457802698856104e-04  4.7179142407462508e-04  4.6985326466893065e-04  4.6871829274707931e-04  4.6836262771342139e-04  4.6877900304810539e-04  4.6997522588280917e-04  4.7197730484058691e-04  4.7483552344165228e-04  4.7862900496617710e-04  4.8345686494173347e-04  4.8939636476605581e-04  4.9642262652758898e-04  5.0441895059493227e-04  5.1315861973161932e-04  5.2231215279116539e-04  5.3135651334433587e-04  5.4044793288754250e-04  5.4996487121773577e-04  5.6281002460730855e-04  6.0948549483424281e-04  7.4965753903408010e-04  1.4859771092556237e-03  1.0456531757869788e-02  3.1359496434820278e-02  5.1951183494202108e-02  5.9205394149365133e-02  4.2560196379839016e-02  9.3579158689583483e-04  8.5131028529510425e-04  1.8378103844103575e-03  9.0527003540121123e-02  2.1113752708707439e-01  2.1571757135514225e-01  1.8239678972386542e-01  1.3543122287664253e-01  8.5367797136623444e-02  4.0270816130464439e-02  9.1471501137342578e-03  1.0441443752074763e-03  6.3503977615420970e-04  5.6823297044553459e-04  5.4945005144959669e-04  5.3678023412273156e-04  5.2530305464761041e-04  5.1442632153097536e-04  5.0438850018161903e-04  4.9543039817815792e-04  4.8775304930952099e-04  4.8145236741806206e-04  4.7645323409207868e-04  4.7259077804937352e-04  4.6971396558905860e-04  4.6772185746129174e-04  4.6655723925822026e-04  4.6619253457345390e-04  4.6661957295193501e-04  4.6784591017584798e-04  4.6990056504059226e-04  4.7284766356095568e-04  4.7680007561543415e-04  4.8192933129843110e-04  4.8841243731090887e-04  4.9627820637790007e-04  5.0541161385646597e-04  5.1570400797460348e-04  5.2684600876076835e-04  5.3884326227747524e-04  5.5445540349784281e-04  5.8275377917566982e-04  6.6550265334442348e-04  1.0199844671102266e-03  6.3115114426480793e-03  3.4194138551197142e-02  7.9530127271236928e-02  1.3113748483252838e-01  1.7790577666026094e-01  2.1007753840248658e-01  2.0867362815180543e-01  1.1469261092863414e-01  1.3724252835594993e-03  4.0605836731190503e-01  4.6541085137746468e-01  4.9685203917595927e-01  4.2491276208607764e-01  3.5750088284981091e-01  2.7768614375014872e-01  1.9719421079797156e-01  1.2353585414730089e-01  6.3316242387171207e-02  2.0718996303927890e-02  1.8183716474173659e-03  7.0201367841846466e-04  5.7464322605740479e-04  5.4605863545825512e-04  5.3028643457827271e-04  5.1695530865080569e-04  5.0520780620824158e-04  4.9495250092500460e-04  4.8635372342878169e-04  4.7952584434298969e-04  4.7427438694432571e-04  4.7029024884841453e-04  4.6734386959811937e-04  4.6530677977093762e-04  4.6411526855749875e-04  4.6374217673257200e-04  4.6418009765251137e-04  4.6543384365851286e-04  4.6753013551978557e-04  4.7054177185637292e-04  4.7461072078953557e-04  4.8001166191424176e-04  4.8708382283212652e-04  4.9596190757891898e-04  5.0632848137266082e-04  5.1881054029563980e-04  5.3299217101560601e-04  5.5208887520456415e-04  5.9900336387426326e-04  7.3282397608344797e-04  1.5278338195850300e-03  1.5804903823126819e-02  5.7482585009020558e-02  1.1987742395665775e-01  1.9335304517804089e-01  2.7389692664336807e-01  3.5335386712419969e-01  4.1930885019468944e-01  4.5070852374120868e-01  4.7347851175517031e-01  3.5820798685934080e-01  9.9570697421831822e-01  9.7716541825120418e-01  7.9051837981712691e-01  6.6544621339789234e-01  5.5872841285856600e-01  4.4639358878640328e-01  3.3916667230874964e-01  2.3894535451699961e-01  1.5124910469763211e-01  8.1215515446131523e-02  3.1436363125625415e-02  4.1444327142092568e-03  8.0239212058803790e-04  5.8460429527186454e-04  5.4023146478020061e-04  5.2044286633574736e-04  5.0619487559481861e-04  4.9427794351053250e-04  4.8452783821703555e-04  4.7716902486528604e-04  4.7174649932017591e-04  4.6769850909771576e-04  4.6470854780209300e-04  4.6263531334796431e-04  4.6141827128778223e-04  4.6103709024023095e-04  4.6148789468371346e-04  4.6277018019214960e-04  4.6489834981618057e-04  4.6794369039067146e-04  4.7206555512416905e-04  4.7766015669340622e-04  4.8536807265882781e-04  4.9574323200822078e-04  5.0770114476721400e-04  5.2444709323706438e-04  5.4943181545281299e-04  6.1516755889852166e-04  8.2629782254185151e-04  2.7894236319426654e-03  2.5883537818596571e-02  7.6537325483041443e-02  1.4821903417102128e-01  2.3558906658612244e-01  3.3611367977759793e-01  4.4451948013442638e-01  5.4729381906934615e-01  6.5917904362984936e-01  8.0816026955027320e-01  9.8612865188343046e-01  9.8960636835365323e-01  9.9905788319998801e-01  9.9918399399871749e-01  9.9721725463204536e-01  9.0525836638243040e-01  7.4614666161081289e-01  6.1790522900608724e-01  4.9250056250545626e-01  3.7345678403707633e-01  2.6471415791639191e-01  1.7093138342187178e-01  9.6245658420035254e-02  4.2291468611855128e-02  9.3197138191093275e-03  1.0727297964197701e-03  6.2441791787203830e-04  5.3803625106416467e-04  5.1120745279524440e-04  4.9480730693514678e-04  4.8281490186028120e-04  4.7474517895260555e-04  4.6919336092331843e-04  4.6508846027426852e-04  4.6204093442110905e-04  4.5991678762373164e-04  4.5866293205603558e-04  4.5827138699708954e-04  4.5874707710254420e-04  4.6008788062296667e-04  4.6227700786453501e-04  4.6539295199210902e-04  4.6961097377688234e-04  4.7539658738692686e-04  4.8419839850308939e-04  4.9801165054272909e-04  5.1581211706117915e-04  5.5777008731988393e-04  6.5763731828837730e-04  1.0299478682149490e-03  6.2294941236377150e-03  3.6901550916916742e-02  9.2655204299958202e-02  1.6833664855929273e-01  2.6234094263017016e-01  3.7178103834368736e-01  4.9208682721883407e-01  6.1329340406464028e-01  7.4470994393312007e-01  9.3547478031380138e-01  9.9809158566501099e-01  9.9926994755006260e-01  9.9872659957770160e-01  9.9937534279509854e-01  9.9958418134186844e-01  9.9917107478417611e-01  9.9696692732276015e-01  9.1052670871973307e-01  7.6868822746603227e-01  6.3930670151252578e-01  5.1254598472930812e-01  3.9194139544356266e-01  2.8192959662856881e-01  1.8750268757184288e-01  1.1189214771210787e-01  5.6331303790478848e-02  2.0096485785898836e-02  2.5012351128484585e-03  8.1498353426908896e-04  5.9106320179651956e-04  5.2234982527728886e-04  4.9389218189110136e-04  4.8007899631869865e-04  4.7207476762531906e-04  4.6659435327373435e-04  4.6275105855208372e-04  4.6018251414636693e-04  4.5870398296975521e-04  4.5826778503149906e-04  4.5888571857086272e-04  4.6059544505190451e-04  4.6340527461651384e-04  4.6762579206211484e-04  4.7379840933364661e-04  4.8304663364495795e-04  5.0077256650122052e-04  5.4037978252926980e-04  6.1288347031400036e-04  8.0764615713231646e-04  2.0617881188262511e-03  1.5328986026893351e-02  5.1845754217486502e-02  1.0931527406751078e-01  1.8525231064358338e-01  2.8030249950182035e-01  3.9125176419901114e-01  5.1317964526095561e-01  6.3913647766296067e-01  7.6781554568571342e-01  9.3482837993467693e-01  9.9758027989328746e-01  9.9919585344814832e-01  9.9958365206443167e-01  9.9932640855862676e-01  9.9933898466462034e-01  9.9961516938495387e-01  9.9936293897892436e-01  9.9856541783108121e-01  9.9283468185159840e-01  8.8437056903379496e-01  7.6401296347694181e-01  6.4185012705530409e-01  5.2020136462824818e-01  4.0368505698904722e-01  2.9752588224357163e-01  2.0646722923692309e-01  1.3315189032221592e-01  7.8168110439886793e-02  3.9823055301674820e-02  1.5487955781904102e-02  3.0419821122426834e-03  1.0779709504644503e-03  7.4152255051338216e-04  6.3306590675127274e-04  5.8138321778179877e-04  5.5220423104195135e-04  5.3537572935382803e-04  5.2560937333631750e-04  5.2056853079402343e-04  5.1925447371737276e-04  5.2142840813905803e-04  5.2745992809769167e-04  5.3803404833916726e-04  5.5585366887231391e-04  5.8534481635376639e-04  6.3380070458784977e-04  7.3908261828936682e-04  1.0439990101300889e-03  2.5981142445633382e-03  1.2467254357674653e-02  3.5618603494250764e-02  7.5609692660394301e-02  1.3133395580482216e-01  2.0479438121515833e-01  2.9656914265385670e-01  4.0383579959637761e-01  5.2137769696056446e-01  6.4369823668134196e-01  7.6505909122840321e-01  8.9719287592081831e-01  9.9430813218295655e-01  9.9855512374361433e-01  9.9934062765228449e-01  9.9960556311078763e-01  9.9937849788772692e-01  9.9880404417391655e-01  9.9942460920255916e-01  9.9916215264430841e-01  9.9850209313531602e-01  9.9596187236353606e-01  9.5541114358886814e-01  8.5513683368159132e-01  7.4986836648758970e-01  6.3795458920821335e-01  5.2494142073665828e-01  4.1668377881072399e-01  3.1843219249950627e-01  2.3435937176040109e-01  1.6646039924517753e-01  1.1442461188408673e-01  7.6569693722203874e-02  5.0079163118695508e-02  3.1942612756058371e-02  1.9946476913573159e-02  1.2447295790209404e-02  8.2394747390391373e-03  5.5832370665216688e-03  4.1611227528269993e-03  3.4506169316899488e-03  3.1022380936198209e-03  2.9913390922298145e-03  3.0806020577634667e-03  3.4075070722627116e-03  4.0809688177580999e-03  5.3631921088612422e-03  7.8378563058030919e-03  1.1685246691916165e-02  1.8375402328429911e-02  2.9532127317349569e-02  4.6802527468218912e-02  7.4826409912154418e-02  1.1334068128038501e-01  1.6532361707524973e-01  2.3340693931324891e-01  3.1830977802657706e-01  4.1748678241733395e-01  5.2661863590117819e-01  6.4035339464653929e-01  7.5304199648119119e-01  8.6144808231786496e-01  9.6230939911669466e-01  9.9576474946460181e-01  9.9834996456554725e-01  9.9908993472417018e-01  9.9938736349975121e-01  9.9909383554041631e-01  9.8950058125391349e-01  9.9749311863245926e-01  9.9732082026592095e-01  9.9640839941135340e-01  9.9341739957488640e-01  9.7002281788274203e-01  9.0721140177278747e-01  8.2854309207983690e-01  7.3579940538316946e-01  6.3576365998808182e-01  5.3467689989625311e-01  4.3858422413549975e-01  3.5236592996887345e-01  2.7920083534942486e-01  2.2025266246791583e-01  1.7474557823043346e-01  1.4072773988778786e-01  1.1626848593465204e-01  9.9322693391833000e-02  8.7334437382644042e-02  7.8811605077109534e-02  7.2986137326315911e-02  6.9022946348646419e-02  6.6540691064823063e-02  6.5148552251294609e-02  6.4644850125844200e-02  6.4993670035207354e-02  6.6246879521493718e-02  6.8590288430283863e-02  7.2386833341280973e-02  7.8184884719045750e-02  8.6655534180004046e-02  9.8851888028053572e-02  1.1638220439771554e-01  1.4073940689792505e-01  1.7427182376939324e-01  2.1976977996512448e-01  2.7920252505500581e-01  3.5314408794975655e-01  4.4004379772531937e-01  5.3679719958954886e-01  6.3857123012924499e-01  7.3956302516763983e-01  8.3374146119431203e-01  9.1419978944038693e-01  9.7071102313048663e-01  9.9242781999646479e-01  9.9595672281109626e-01  9.9730772560524539e-01  9.9779940561321800e-01  9.9653447658321892e-01  3.4143581315011606e-01  6.4898935000190416e-01  8.0393147762820649e-01  8.9777615962013468e-01  9.3512414482974471e-01  9.3945823846787102e-01  9.1830646818399908e-01  8.7306910942720273e-01  8.0721770490511036e-01  7.2802135955227010e-01  6.4248609805576629e-01  5.5724375993786002e-01  4.778066593