<?xml version="1.0"?>
<VTKFile type="UnstructuredGrid"  version="0.1"  >
<UnstructuredGrid>
<Piece  NumberOfPoints="2601" NumberOfCells="5000">
<Points>
<DataArray  type="Float64"  NumberOfComponents="3"  format="ascii">0 0 0  0.03 0 0  0.06 0 0  0.09 0 0  0.12 0 0  0.15 0 0  0.18 0 0  0.21 0 0  0.24 0 0  0.27 0 0  0.3 0 0  0.33 0 0  0.36 0 0  0.39 0 0  0.42 0 0  0.45 0 0  0.48 0 0  0.51 0 0  0.54 0 0  0.57 0 0  0.6 0 0  0.63 0 0  0.66 0 0  0.6899999999999999 0 0  0.72 0 0  0.75 0 0  0.78 0 0  0.8100000000000001 0 0  0.84 0 0  0.87 0 0  0.9 0 0  0.93 0 0  0.96 0 0  0.99 0 0  1.02 0 0  1.05 0 0  1.08 0 0  1.11 0 0  1.14 0 0  1.17 0 0  1.2 0 0  1.23 0 0  1.26 0 0  1.29 0 0  1.32 0 0  1.35 0 0  1.38 0 0  1.41 0 0  1.44 0 0  1.47 0 0  1.5 0 0  0 0.02 0  0.03 0.02 0  0.06 0.02 0  0.09 0.02 0  0.12 0.02 0  0.15 0.02 0  0.18 0.02 0  0.21 0.02 0  0.24 0.02 0  0.27 0.02 0  0.3 0.02 0  0.33 0.02 0  0.36 0.02 0  0.39 0.02 0  0.42 0.02 0  0.45 0.02 0  0.48 0.02 0  0.51 0.02 0  0.54 0.02 0  0.57 0.02 0  0.6 0.02 0  0.63 0.02 0  0.66 0.02 0  0.6899999999999999 0.02 0  0.72 0.02 0  0.75 0.02 0  0.78 0.02 0  0.8100000000000001 0.02 0  0.84 0.02 0  0.87 0.02 0  0.9 0.02 0  0.93 0.02 0  0.96 0.02 0  0.99 0.02 0  1.02 0.02 0  1.05 0.02 0  1.08 0.02 0  1.11 0.02 0  1.14 0.02 0  1.17 0.02 0  1.2 0.02 0  1.23 0.02 0  1.26 0.02 0  1.29 0.02 0  1.32 0.02 0  1.35 0.02 0  1.38 0.02 0  1.41 0.02 0  1.44 0.02 0  1.47 0.02 0  1.5 0.02 0  0 0.04 0  0.03 0.04 0  0.06 0.04 0  0.09 0.04 0  0.12 0.04 0  0.15 0.04 0  0.18 0.04 0  0.21 0.04 0  0.24 0.04 0  0.27 0.04 0  0.3 0.04 0  0.33 0.04 0  0.36 0.04 0  0.39 0.04 0  0.42 0.04 0  0.45 0.04 0  0.48 0.04 0  0.51 0.04 0  0.54 0.04 0  0.57 0.04 0  0.6 0.04 0  0.63 0.04 0  0.66 0.04 0  0.6899999999999999 0.04 0  0.72 0.04 0  0.75 0.04 0  0.78 0.04 0  0.8100000000000001 0.04 0  0.84 0.04 0  0.87 0.04 0  0.9 0.04 0  0.93 0.04 0  0.96 0.04 0  0.99 0.04 0  1.02 0.04 0  1.05 0.04 0  1.08 0.04 0  1.11 0.04 0  1.14 0.04 0  1.17 0.04 0  1.2 0.04 0  1.23 0.04 0  1.26 0.04 0  1.29 0.04 0  1.32 0.04 0  1.35 0.04 0  1.38 0.04 0  1.41 0.04 0  1.44 0.04 0  1.47 0.04 0  1.5 0.04 0  0 0.06 0  0.03 0.06 0  0.06 0.06 0  0.09 0.06 0  0.12 0.06 0  0.15 0.06 0  0.18 0.06 0  0.21 0.06 0  0.24 0.06 0  0.27 0.06 0  0.3 0.06 0  0.33 0.06 0  0.36 0.06 0  0.39 0.06 0  0.42 0.06 0  0.45 0.06 0  0.48 0.06 0  0.51 0.06 0  0.54 0.06 0  0.57 0.06 0  0.6 0.06 0  0.63 0.06 0  0.66 0.06 0  0.6899999999999999 0.06 0  0.72 0.06 0  0.75 0.06 0  0.78 0.06 0  0.8100000000000001 0.06 0  0.84 0.06 0  0.87 0.06 0  0.9 0.06 0  0.93 0.06 0  0.96 0.06 0  0.99 0.06 0  1.02 0.06 0  1.05 0.06 0  1.08 0.06 0  1.11 0.06 0  1.14 0.06 0  1.17 0.06 0  1.2 0.06 0  1.23 0.06 0  1.26 0.06 0  1.29 0.06 0  1.32 0.06 0  1.35 0.06 0  1.38 0.06 0  1.41 0.06 0  1.44 0.06 0  1.47 0.06 0  1.5 0.06 0  0 0.08 0  0.03 0.08 0  0.06 0.08 0  0.09 0.08 0  0.12 0.08 0  0.15 0.08 0  0.18 0.08 0  0.21 0.08 0  0.24 0.08 0  0.27 0.08 0  0.3 0.08 0  0.33 0.08 0  0.36 0.08 0  0.39 0.08 0  0.42 0.08 0  0.45 0.08 0  0.48 0.08 0  0.51 0.08 0  0.54 0.08 0  0.57 0.08 0  0.6 0.08 0  0.63 0.08 0  0.66 0.08 0  0.6899999999999999 0.08 0  0.72 0.08 0  0.75 0.08 0  0.78 0.08 0  0.8100000000000001 0.08 0  0.84 0.08 0  0.87 0.08 0  0.9 0.08 0  0.93 0.08 0  0.96 0.08 0  0.99 0.08 0  1.02 0.08 0  1.05 0.08 0  1.08 0.08 0  1.11 0.08 0  1.14 0.08 0  1.17 0.08 0  1.2 0.08 0  1.23 0.08 0  1.26 0.08 0  1.29 0.08 0  1.32 0.08 0  1.35 0.08 0  1.38 0.08 0  1.41 0.08 0  1.44 0.08 0  1.47 0.08 0  1.5 0.08 0  0 0.1 0  0.03 0.1 0  0.06 0.1 0  0.09 0.1 0  0.12 0.1 0  0.15 0.1 0  0.18 0.1 0  0.21 0.1 0  0.24 0.1 0  0.27 0.1 0  0.3 0.1 0  0.33 0.1 0  0.36 0.1 0  0.39 0.1 0  0.42 0.1 0  0.45 0.1 0  0.48 0.1 0  0.51 0.1 0  0.54 0.1 0  0.57 0.1 0  0.6 0.1 0  0.63 0.1 0  0.66 0.1 0  0.6899999999999999 0.1 0  0.72 0.1 0  0.75 0.1 0  0.78 0.1 0  0.8100000000000001 0.1 0  0.84 0.1 0  0.87 0.1 0  0.9 0.1 0  0.93 0.1 0  0.96 0.1 0  0.99 0.1 0  1.02 0.1 0  1.05 0.1 0  1.08 0.1 0  1.11 0.1 0  1.14 0.1 0  1.17 0.1 0  1.2 0.1 0  1.23 0.1 0  1.26 0.1 0  1.29 0.1 0  1.32 0.1 0  1.35 0.1 0  1.38 0.1 0  1.41 0.1 0  1.44 0.1 0  1.47 0.1 0  1.5 0.1 0  0 0.12 0  0.03 0.12 0  0.06 0.12 0  0.09 0.12 0  0.12 0.12 0  0.15 0.12 0  0.18 0.12 0  0.21 0.12 0  0.24 0.12 0  0.27 0.12 0  0.3 0.12 0  0.33 0.12 0  0.36 0.12 0  0.39 0.12 0  0.42 0.12 0  0.45 0.12 0  0.48 0.12 0  0.51 0.12 0  0.54 0.12 0  0.57 0.12 0  0.6 0.12 0  0.63 0.12 0  0.66 0.12 0  0.6899999999999999 0.12 0  0.72 0.12 0  0.75 0.12 0  0.78 0.12 0  0.8100000000000001 0.12 0  0.84 0.12 0  0.87 0.12 0  0.9 0.12 0  0.93 0.12 0  0.96 0.12 0  0.99 0.12 0  1.02 0.12 0  1.05 0.12 0  1.08 0.12 0  1.11 0.12 0  1.14 0.12 0  1.17 0.12 0  1.2 0.12 0  1.23 0.12 0  1.26 0.12 0  1.29 0.12 0  1.32 0.12 0  1.35 0.12 0  1.38 0.12 0  1.41 0.12 0  1.44 0.12 0  1.47 0.12 0  1.5 0.12 0  0 0.14 0  0.03 0.14 0  0.06 0.14 0  0.09 0.14 0  0.12 0.14 0  0.15 0.14 0  0.18 0.14 0  0.21 0.14 0  0.24 0.14 0  0.27 0.14 0  0.3 0.14 0  0.33 0.14 0  0.36 0.14 0  0.39 0.14 0  0.42 0.14 0  0.45 0.14 0  0.48 0.14 0  0.51 0.14 0  0.54 0.14 0  0.57 0.14 0  0.6 0.14 0  0.63 0.14 0  0.66 0.14 0  0.6899999999999999 0.14 0  0.72 0.14 0  0.75 0.14 0  0.78 0.14 0  0.8100000000000001 0.14 0  0.84 0.14 0  0.87 0.14 0  0.9 0.14 0  0.93 0.14 0  0.96 0.14 0  0.99 0.14 0  1.02 0.14 0  1.05 0.14 0  1.08 0.14 0  1.11 0.14 0  1.14 0.14 0  1.17 0.14 0  1.2 0.14 0  1.23 0.14 0  1.26 0.14 0  1.29 0.14 0  1.32 0.14 0  1.35 0.14 0  1.38 0.14 0  1.41 0.14 0  1.44 0.14 0  1.47 0.14 0  1.5 0.14 0  0 0.16 0  0.03 0.16 0  0.06 0.16 0  0.09 0.16 0  0.12 0.16 0  0.15 0.16 0  0.18 0.16 0  0.21 0.16 0  0.24 0.16 0  0.27 0.16 0  0.3 0.16 0  0.33 0.16 0  0.36 0.16 0  0.39 0.16 0  0.42 0.16 0  0.45 0.16 0  0.48 0.16 0  0.51 0.16 0  0.54 0.16 0  0.57 0.16 0  0.6 0.16 0  0.63 0.16 0  0.66 0.16 0  0.6899999999999999 0.16 0  0.72 0.16 0  0.75 0.16 0  0.78 0.16 0  0.8100000000000001 0.16 0  0.84 0.16 0  0.87 0.16 0  0.9 0.16 0  0.93 0.16 0  0.96 0.16 0  0.99 0.16 0  1.02 0.16 0  1.05 0.16 0  1.08 0.16 0  1.11 0.16 0  1.14 0.16 0  1.17 0.16 0  1.2 0.16 0  1.23 0.16 0  1.26 0.16 0  1.29 0.16 0  1.32 0.16 0  1.35 0.16 0  1.38 0.16 0  1.41 0.16 0  1.44 0.16 0  1.47 0.16 0  1.5 0.16 0  0 0.18 0  0.03 0.18 0  0.06 0.18 0  0.09 0.18 0  0.12 0.18 0  0.15 0.18 0  0.18 0.18 0  0.21 0.18 0  0.24 0.18 0  0.27 0.18 0  0.3 0.18 0  0.33 0.18 0  0.36 0.18 0  0.39 0.18 0  0.42 0.18 0  0.45 0.18 0  0.48 0.18 0  0.51 0.18 0  0.54 0.18 0  0.57 0.18 0  0.6 0.18 0  0.63 0.18 0  0.66 0.18 0  0.6899999999999999 0.18 0  0.72 0.18 0  0.75 0.18 0  0.78 0.18 0  0.8100000000000001 0.18 0  0.84 0.18 0  0.87 0.18 0  0.9 0.18 0  0.93 0.18 0  0.96 0.18 0  0.99 0.18 0  1.02 0.18 0  1.05 0.18 0  1.08 0.18 0  1.11 0.18 0  1.14 0.18 0  1.17 0.18 0  1.2 0.18 0  1.23 0.18 0  1.26 0.18 0  1.29 0.18 0  1.32 0.18 0  1.35 0.18 0  1.38 0.18 0  1.41 0.18 0  1.44 0.18 0  1.47 0.18 0  1.5 0.18 0  0 0.2 0  0.03 0.2 0  0.06 0.2 0  0.09 0.2 0  0.12 0.2 0  0.15 0.2 0  0.18 0.2 0  0.21 0.2 0  0.24 0.2 0  0.27 0.2 0  0.3 0.2 0  0.33 0.2 0  0.36 0.2 0  0.39 0.2 0  0.42 0.2 0  0.45 0.2 0  0.48 0.2 0  0.51 0.2 0  0.54 0.2 0  0.57 0.2 0  0.6 0.2 0  0.63 0.2 0  0.66 0.2 0  0.6899999999999999 0.2 0  0.72 0.2 0  0.75 0.2 0  0.78 0.2 0  0.8100000000000001 0.2 0  0.84 0.2 0  0.87 0.2 0  0.9 0.2 0  0.93 0.2 0  0.96 0.2 0  0.99 0.2 0  1.02 0.2 0  1.05 0.2 0  1.08 0.2 0  1.11 0.2 0  1.14 0.2 0  1.17 0.2 0  1.2 0.2 0  1.23 0.2 0  1.26 0.2 0  1.29 0.2 0  1.32 0.2 0  1.35 0.2 0  1.38 0.2 0  1.41 0.2 0  1.44 0.2 0  1.47 0.2 0  1.5 0.2 0  0 0.22 0  0.03 0.22 0  0.06 0.22 0  0.09 0.22 0  0.12 0.22 0  0.15 0.22 0  0.18 0.22 0  0.21 0.22 0  0.24 0.22 0  0.27 0.22 0  0.3 0.22 0  0.33 0.22 0  0.36 0.22 0  0.39 0.22 0  0.42 0.22 0  0.45 0.22 0  0.48 0.22 0  0.51 0.22 0  0.54 0.22 0  0.57 0.22 0  0.6 0.22 0  0.63 0.22 0  0.66 0.22 0  0.6899999999999999 0.22 0  0.72 0.22 0  0.75 0.22 0  0.78 0.22 0  0.8100000000000001 0.22 0  0.84 0.22 0  0.87 0.22 0  0.9 0.22 0  0.93 0.22 0  0.96 0.22 0  0.99 0.22 0  1.02 0.22 0  1.05 0.22 0  1.08 0.22 0  1.11 0.22 0  1.14 0.22 0  1.17 0.22 0  1.2 0.22 0  1.23 0.22 0  1.26 0.22 0  1.29 0.22 0  1.32 0.22 0  1.35 0.22 0  1.38 0.22 0  1.41 0.22 0  1.44 0.22 0  1.47 0.22 0  1.5 0.22 0  0 0.24 0  0.03 0.24 0  0.06 0.24 0  0.09 0.24 0  0.12 0.24 0  0.15 0.24 0  0.18 0.24 0  0.21 0.24 0  0.24 0.24 0  0.27 0.24 0  0.3 0.24 0  0.33 0.24 0  0.36 0.24 0  0.39 0.24 0  0.42 0.24 0  0.45 0.24 0  0.48 0.24 0  0.51 0.24 0  0.54 0.24 0  0.57 0.24 0  0.6 0.24 0  0.63 0.24 0  0.66 0.24 0  0.6899999999999999 0.24 0  0.72 0.24 0  0.75 0.24 0  0.78 0.24 0  0.8100000000000001 0.24 0  0.84 0.24 0  0.87 0.24 0  0.9 0.24 0  0.93 0.24 0  0.96 0.24 0  0.99 0.24 0  1.02 0.24 0  1.05 0.24 0  1.08 0.24 0  1.11 0.24 0  1.14 0.24 0  1.17 0.24 0  1.2 0.24 0  1.23 0.24 0  1.26 0.24 0  1.29 0.24 0  1.32 0.24 0  1.35 0.24 0  1.38 0.24 0  1.41 0.24 0  1.44 0.24 0  1.47 0.24 0  1.5 0.24 0  0 0.26 0  0.03 0.26 0  0.06 0.26 0  0.09 0.26 0  0.12 0.26 0  0.15 0.26 0  0.18 0.26 0  0.21 0.26 0  0.24 0.26 0  0.27 0.26 0  0.3 0.26 0  0.33 0.26 0  0.36 0.26 0  0.39 0.26 0  0.42 0.26 0  0.45 0.26 0  0.48 0.26 0  0.51 0.26 0  0.54 0.26 0  0.57 0.26 0  0.6 0.26 0  0.63 0.26 0  0.66 0.26 0  0.6899999999999999 0.26 0  0.72 0.26 0  0.75 0.26 0  0.78 0.26 0  0.8100000000000001 0.26 0  0.84 0.26 0  0.87 0.26 0  0.9 0.26 0  0.93 0.26 0  0.96 0.26 0  0.99 0.26 0  1.02 0.26 0  1.05 0.26 0  1.08 0.26 0  1.11 0.26 0  1.14 0.26 0  1.17 0.26 0  1.2 0.26 0  1.23 0.26 0  1.26 0.26 0  1.29 0.26 0  1.32 0.26 0  1.35 0.26 0  1.38 0.26 0  1.41 0.26 0  1.44 0.26 0  1.47 0.26 0  1.5 0.26 0  0 0.28 0  0.03 0.28 0  0.06 0.28 0  0.09 0.28 0  0.12 0.28 0  0.15 0.28 0  0.18 0.28 0  0.21 0.28 0  0.24 0.28 0  0.27 0.28 0  0.3 0.28 0  0.33 0.28 0  0.36 0.28 0  0.39 0.28 0  0.42 0.28 0  0.45 0.28 0  0.48 0.28 0  0.51 0.28 0  0.54 0.28 0  0.57 0.28 0  0.6 0.28 0  0.63 0.28 0  0.66 0.28 0  0.6899999999999999 0.28 0  0.72 0.28 0  0.75 0.28 0  0.78 0.28 0  0.8100000000000001 0.28 0  0.84 0.28 0  0.87 0.28 0  0.9 0.28 0  0.93 0.28 0  0.96 0.28 0  0.99 0.28 0  1.02 0.28
[...]
<PointData  Scalars="ControlVisualisation"> 
<DataArray  type="Float64"  Name="ControlVisualisation"  format="ascii">6.8257360177764468e-03  4.5756856016233782e-03  4.5898673546432315e-03  4.6188089454557695e-03  4.6629812369205258e-03  4.7170543301941568e-03  4.7732063904208800e-03  4.8247553147035922e-03  4.8676053237932497e-03  4.9001196352487630e-03  4.9224266915897392e-03  4.9356809219113498e-03  4.9414725400017930e-03  4.9414481075645686e-03  4.9371351775786476e-03  4.9298942806063435e-03  4.9209054634504912e-03  4.9111508957389582e-03  4.9014041988543252e-03  4.8922424253099919e-03  4.8840787577481577e-03  4.8772010721183021e-03  4.8718043781617957e-03  4.8680147471726254e-03  4.8659071305455683e-03  4.8655185968096756e-03  4.8668566109047427e-03  4.8699014235883357e-03  4.8746019035219752e-03  4.8808641037040206e-03  4.8885311848694390e-03  4.8973538737661273e-03  4.9069552872125846e-03  4.9168006481226725e-03  4.9261828411247075e-03  4.9342225104372656e-03  4.9398668910006754e-03  4.9418720083845707e-03  4.9387738652037685e-03  4.9289057355258077e-03  4.9105551882543397e-03  4.8823183387131739e-03  4.8436137464318938e-03  4.7953225112430786e-03  4.7404846659475242e-03  4.6847185113867724e-03  4.6356244831701546e-03  4.6000906989753908e-03  4.5803261730864358e-03  4.5724195702204094e-03  1.3731797928909788e-02  4.5735033869281497e-03  2.2842373664007003e-03  2.3002280286121878e-03  2.3353699526485719e-03  2.3927120206731901e-03  2.4678422904171552e-03  2.5514357193909404e-03  2.6334441905865279e-03  2.7057784984017026e-03  2.7634606915079530e-03  2.8047578870672553e-03  2.8304757024186522e-03  2.8428214703452919e-03  2.8444349179329196e-03  2.8379137620835057e-03  2.8257084303465385e-03  2.8100796147034948e-03  2.7929812055848321e-03  2.7759357543131915e-03  2.7600037343285004e-03  2.7458621601489023e-03  2.7339301910948234e-03  2.7244742237374927e-03  2.7176675715864422e-03  2.7136164814985080e-03  2.7123728005899019e-03  2.7139451526525232e-03  2.7183111260466928e-03  2.7254268991227289e-03  2.7352238995701260e-03  2.7475736324888813e-03  2.7622019129823353e-03  2.7785614119638044e-03  2.7957264680694193e-03  2.8124012153843622e-03  2.8270493991718699e-03  2.8380001539785073e-03  2.8433518791559313e-03  2.8407018566306086e-03  2.8270500968595206e-03  2.7992850384773718e-03  2.7552500583282206e-03  2.6948462727005825e-03  2.6206377507946819e-03  2.5380485925058267e-03  2.4553386430401286e-03  2.3825678579629415e-03  2.3286169134506072e-03  2.2969155375122084e-03  2.2831110542998771e-03  4.5720018230810261e-03  4.5778750463090091e-03  2.2893407491072458e-03  2.3108412195918466e-03  2.3573883490138610e-03  2.4322079228158225e-03  2.5290125617417124e-03  2.6364713747675872e-03  2.7424986616376460e-03  2.8367177406661706e-03  2.9121307994129752e-03  2.9659095347059966e-03  2.9987875476052426e-03  3.0135794691615076e-03  3.0138157464176321e-03  3.0030633546251706e-03  2.9847490839860899e-03  2.9620371294030567e-03  2.9376218634171885e-03  2.9135565531677910e-03  2.8912333492330179e-03  2.8715141375165957e-03  2.8549177013662804e-03  2.8417684202488025e-03  2.8322765686929095e-03  2.8265714100908891e-03  2.8247162945140595e-03  2.8267213095592037e-03  2.8325575094443282e-03  2.8421707679331708e-03  2.8554850399974121e-03  2.8723697637619556e-03  2.8925358104590210e-03  2.9153536978494834e-03  2.9396715754252205e-03  2.9637740994453458e-03  2.9855371496009917e-03  3.0026197727004091e-03  3.0124255125542265e-03  3.0117486485230901e-03  2.9965396207189991e-03  2.9625205454111127e-03  2.9067625400320926e-03  2.8293704857330244e-03  2.7340372037602491e-03  2.6278132236996418e-03  2.5208666011283017e-03  2.4252311641211827e-03  2.3522507421924036e-03  2.3079075901102052e-03  2.2881797598979124e-03  4.5752379972761881e-03  4.5819933878069328e-03  2.2964165898065932e-03  2.3262416249727087e-03  2.3844535769416524e-03  2.4699761221085234e-03  2.5727757258006555e-03  2.6817103897198383e-03  2.7863850120608494e-03  2.8774218174165036e-03  2.9483901161213698e-03  2.9970639994369259e-03  3.0247952438636097e-03  3.0348212302444416e-03  3.0307891434108226e-03  3.0162189183784013e-03  2.9945160877315287e-03  2.9688818224497182e-03  2.9420436178520374e-03  2.9160389553337064e-03  2.8921946636293653e-03  2.8712887887090283e-03  2.8537708021734226e-03  2.8399236445858017e-03  2.8299390704484059e-03  2.8239398734665015e-03  2.8219864571655119e-03  2.8240848650189377e-03  2.8302002332202506e-03  2.8402754988108743e-03  2.8542476585471928e-03  2.8720333021055415e-03  2.8934311839583704e-03  2.9179123772832957e-03  2.9443782955176296e-03  2.9710726473236903e-03  2.9957738838033991e-03  3.0161089053406236e-03  3.0296250598739480e-03  3.0333736546395962e-03  3.0233387746219200e-03  2.9947517529943816e-03  2.9438580350665787e-03  2.8705704343216483e-03  2.7785145100265281e-03  2.6738007520062347e-03  2.5646742509108792e-03  2.4615724440164338e-03  2.3770727732845428e-03  2.3207981468185944e-03  2.2939482488729714e-03  4.5797230872343100e-03  4.5811419658781235e-03  2.3053539171760968e-03  2.3579862322145677e-03  2.4437512761595094e-03  2.5468313944622678e-03  2.6509607907463676e-03  2.7526811825943102e-03  2.8478748035251607e-03  2.9289482896512333e-03  2.9897422967958059e-03  3.0285013486019935e-03  3.0473465505361993e-03  3.0500085496400382e-03  3.0400775944956463e-03  3.0207294573956832e-03  2.9950932063628694e-03  2.9662513318392146e-03  2.9368913070055638e-03  2.9089965044321086e-03  2.8837831416127797e-03  2.8618891411525175e-03  2.8436458886937931e-03  2.8292661290929980e-03  2.8189122135402322e-03  2.8126980612527296e-03  2.8106795588378258e-03  2.8128551874952749e-03  2.8191796317030811e-03  2.8295911404263253e-03  2.8440478060512220e-03  2.8625409653316230e-03  2.8850077981031389e-03  2.9110757649930532e-03  2.9397374908617878e-03  2.9691915984533810e-03  2.9970917564879408e-03  3.0210787757067605e-03  3.0391189381910964e-03  3.0490203350676060e-03  3.0470998229997852e-03  3.0277119320235501e-03  2.9858385305639272e-03  2.9225524498860001e-03  2.8425733779508444e-03  2.7495443081366772e-03  2.6456859378581332e-03  2.5364350702844181e-03  2.4323798906589244e-03  2.3481615019631712e-03  2.2990206658463639e-03  4.5814091232942757e-03  4.5806027542766832e-03  2.3275345788355897e-03  2.4853367452224327e-03  2.7158012043529923e-03  2.8735522630576487e-03  2.9247189461786586e-03  2.9375010772641919e-03  2.9660346254300387e-03  3.0090425586248781e-03  3.0474671580295026e-03  3.0700806625829549e-03  3.0760853210951029e-03  3.0689359633091226e-03  3.0516293653075873e-03  3.0265436066691971e-03  2.9962703433886588e-03  2.9636609297065764e-03  2.9313486390622856e-03  2.9012819356861201e-03  2.8745497026173850e-03  2.8515941618650108e-03  2.8325775320301545e-03  2.8176213344043213e-03  2.8068610851774852e-03  2.8004106825966473e-03  2.7983254260913297e-03  2.8005928044681147e-03  2.8071478048626898e-03  2.8179124642976443e-03  2.8328611337558774e-03  2.8520812177847210e-03  2.8757077830428449e-03  2.9035955143618718e-03  2.9348822808352619e-03  2.9676936431205702e-03  2.9994128850114456e-03  3.0276125850969946e-03  3.0508973761599533e-03  3.0681564364994562e-03  3.0766703200859717e-03  3.0715653190604110e-03  3.0483444887054100e-03  3.0130601098001704e-03  2.9867616727401016e-03  2.9781315160429317e-03  2.9630250692993789e-03  2.8787788235442049e-03  2.6508319089514842e-03  2.4210114994713079e-03  2.3062494300810331e-03  4.5777583046084543e-03  4.6652948714055037e-03  2.5204395859067695e-03  3.5489825014102258e-03  5.7570213684442519e-03  7.0921470865409220e-03  5.7338684554926501e-03  4.2919204118978573e-03  3.5330912571303399e-03  3.2352959004180830e-03  3.1510884168756232e-03  3.1272773548397239e-03  3.1114361072900002e-03  3.0911150922946344e-03  3.0647543503644153e-03  3.0329597010463095e-03  2.9974087568500236e-03  2.9605420392682354e-03  2.9249205344546014e-03  2.8925017394515334e-03  2.8642210021776636e-03  2.8402354192692855e-03  2.8204618093401468e-03  2.8049114765899084e-03  2.7937141686332229e-03  2.7870083589046726e-03  2.7848590503720579e-03  2.7872388564128166e-03  2.7940484913743999e-03  2.8051695249889244e-03  2.8205679212406657e-03  2.8404351104960243e-03  2.8651796057373932e-03  2.8949969989818213e-03  2.9292767846902119e-03  2.9661114819608948e-03  3.0023641347073707e-03  3.0351362019390938e-03  3.0633734578205968e-03  3.0878041149611339e-03  3.1128034626097751e-03  3.1428292980732945e-03  3.1827340838824110e-03  3.2981749765192457e-03  3.6406120045668570e-03  4.3486590336074167e-03  5.5847120757070955e-03  6.9293775366532093e-03  6.0006148399611766e-03  3.6594585174064796e-03  2.4419959719001755e-03  4.5883557189423437e-03  5.0362311694050147e-03  4.9391004735405159e-03  5.3384248690129435e-02  1.0170170701631834e-01  1.0002148982443451e-01  6.6139384838257709e-02  2.8899062247820448e-02  9.7643304643444291e-03  4.7820360197107399e-03  3.5944833121830241e-03  3.2636557912252510e-03  3.1614367151962404e-03  3.1151912384806478e-03  3.0778198604029029e-03  3.0383855222202742e-03  2.9966870430028518e-03  2.9549930801884253e-03  2.9157671447275412e-03  2.8809690034704055e-03  2.8513364153776627e-03  2.8265683048452660e-03  2.8061990434370626e-03  2.7901152417797227e-03  2.7784910651734293e-03  2.7715364596023551e-03  2.7693425680240086e-03  2.7718614639993082e-03  2.7789410069610533e-03  2.7903842492341697e-03  2.8060925744004764e-03  2.8263338338992954e-03  2.8519052466583245e-03  2.8835566615207043e-03  2.9210674714115039e-03  2.9626236772241485e-03  3.0038671976679045e-03  3.0409117448929944e-03  3.0737122848872693e-03  3.1098651545233610e-03  3.1800235526638640e-03  3.3329872851665162e-03  3.7032869054003641e-03  4.7487211849621177e-03  8.6221300656262947e-03  2.4736356847950319e-02  5.2847116581081939e-02  7.2134658417052883e-02  8.8501577102240409e-02  1.0311271948628953e-01  5.0287808684309080e-03  4.8217197179261581e-03  1.0107523298146076e-02  9.8532292574477820e-02  2.1080825480494750e-01  2.1979501007246863e-01  1.8411672908247981e-01  1.3500853567797849e-01  9.3951392765803624e-02  5.5702072134317694e-02  2.4573408186512349e-02  7.0903618612994353e-03  4.0481052866151931e-03  3.3509055400515885e-03  3.1595032084594582e-03  3.0890354067088319e-03  3.0407125499021369e-03  2.9932475413177568e-03  2.9458050195005012e-03  2.9022002775699264e-03  2.8649280230729252e-03  2.8343334071535848e-03  2.8092395777218966e-03  2.7885754218930875e-03  2.7720840532886341e-03  2.7600778317119060e-03  2.7529108471702488e-03  2.7507157634833125e-03  2.7534133052705759e-03  2.7607833437481603e-03  2.7725074372240872e-03  2.7883244278745492e-03  2.8084819854548235e-03  2.8343483300945120e-03  2.8675424029520691e-03  2.9079408121619561e-03  2.9540986000440874e-03  3.0012052056911497e-03  3.0466508381091005e-03  3.0928557731046010e-03  3.1751231749630664e-03  3.4302968641309077e-03  4.1825801934807531e-03  6.7225289568872727e-03  2.0242267625798366e-02  4.8050099683780663e-02  8.0995281464778732e-02  1.2695720861577808e-01  1.7332878191150908e-01  2.0980683242488055e-01  2.2753001854812988e-01  1.7180750025851749e-01  7.5994096831399323e-03  4.1501090172155769e-01  4.7504650254338970e-01  5.0345704464232333e-01  4.3283781875845723e-01  3.6492893073778149e-01  2.8610972940786417e-01  1.9923492445282873e-01  1.1996504710504857e-01  7.2183844507013428e-02  3.9403510741212913e-02  1.1031163978735617e-02  4.6184879856714283e-03  3.4456137740360420e-03  3.1457322250498286e-03  3.0451966097907570e-03  2.9825861008414222e-03  2.9313699502043740e-03  2.8837139906547570e-03  2.8435789966105933e-03  2.8123169339962619e-03  2.7873838929300837e-03  2.7666699938397234e-03  2.7498185857344763e-03  2.7374299929510638e-03  2.7300906637823001e-03  2.7279642572785963e-03  2.7309106619089422e-03  2.7386446701302401e-03  2.7507092933424988e-03  2.7665154551950919e-03  2.7859550567493271e-03  2.8109102375660968e-03  2.8435732630694511e-03  2.8831154399110441e-03  2.9352528794116626e-03  3.0010869454020314e-03  3.0763699690585715e-03  3.1916306712772842e-03  3.5141035456809060e-03  4.6454161532572440e-03  9.5628626735983838e-03  3.2963029034753850e-02  6.8054156240678579e-02  1.1462389812331321e-01  1.9745784234020031e-01  2.7985425833330707e-01  3.6060705170344731e-01  4.2908422003275165e-01  4.6566323629524126e-01  4.9040925991372869e-01  3.7147531639193199e-01  9.7860658485593821e-01  9.5625601474516297e-01  7.9738388002090166e-01  6.8085783185903259e-01  5.7693755875534580e-01  4.5792209388423544e-01  3.4790135675084916e-01  2.4090230495351778e-01  1.4924252341369271e-01  8.7982405356626991e-02  4.2440436094188169e-02  1.7877683429764125e-02  5.5149080638631333e-03  3.6410212170210638e-03  3.1636821702168364e-03  3.0065503431624006e-03  2.9151534460970640e-03  2.8555134085409568e-03  2.8135029923886182e-03  2.7835870327053407e-03  2.7602008299736636e-03  2.7398067194779850e-03  2.7224752877601172e-03  2.7095577943686685e-03  2.7020270212317881e-03  2.7000051586537361e-03  2.7031906112221843e-03  2.7112284703467091e-03  2.7235416667099779e-03  2.7390083221527938e-03  2.7566383346280480e-03  2.7784541093039024e-03  2.8095870258586743e-03  2.8625491092917005e-03  2.9620200423295020e-03  3.0660913829763268e-03  3.2370419617585040e-03  3.6820381760323314e-03  5.1256019791030925e-03  1.4260415579435356e-02  4.2050422711239564e-02  9.0347623201331773e-02  1.5307161016345341e-01  2.4249091650137550e-01  3.3927889273882988e-01  4.5523881331174171e-01  5.6460990613894957e-01  6.6765334850149183e-01  8.0907856546594425e-01  9.6529897562779421e-01  9.6521431933204382e-01  9.9444671268390861e-01  9.9533085680103228e-01  9.8590343322416740e-01  9.0569485556652540e-01  7.6325183075943426e-01  6.3156084540878188e-01  5.0268852857922897e-01  3.8306506098185111e-01  2.7384930914470845e-01  1.8005456652297994e-01  9.9665052209910829e-02  4.4232630374777308e-02  2.9237951822422545e-02  7.6790930587975524e-03  4.1833769925896606e-03  3.2787171796807820e-03  2.9901054948169963e-03  2.8617587905829731e-03  2.7958548039996459e-03  2.7595087150175139e-03  2.7344490281655974e-03  2.7125232694530949e-03  2.6932597722631405e-03  2.6790484520388905e-03  2.6711595283572375e-03  2.6693263644640428e-03  2.6728693190382785e-03  2.6816190917643675e-03  2.6955159950616822e-03  2.7133407948382133e-03  2.7327572273618487e-03  2.7543931796470177e-03  2.7951508478490910e-03  2.8879917245361107e-03  3.0606130458629985e-03  3.2666255019049490e-03  4.2355640263728785e-03  6.7159204242540505e-03  2.4992108529781731e-02  4.4381553282449082e-02  9.6471941745864459e-02  1.7467118588005665e-01  2.7187109544533505e-01  3.7631226918374983e-01  4.9898797345740287e-01  6.2375477923560585e-01  7.5647740866609869e-01  9.2847249810227361e-01  9.8922701453433637e-01  9.9575913637250513e-01  9.9267958243479326e-01  9.9630577904215667e-01  9.9755973574161239e-01  9.9516855849982133e-01  9.8501214367881862e-01  9.1209956517587609e-01  7.7931017441657069e-01  6.4873924342767031e-01  5.2066768529577911e-01  4.0171629674666964e-01  2.9373058499368071e-01  1.9632893137777990e-01  1.1499596978992800e-01  6.3628007841541351e-02  3.8180649024081956e-02  1.4374871671236338e-02  5.9366218368321197e-03  3.9115573892774796e-03  3.2394779538439263e-03  2.9680213955665812e-03  2.8543242243346664e-03  2.7947203802321328e-03  2.7515789858575841e-03  2.7187325364145991e-03  2.6966565145638641e-03  2.6855443823770478e-03  2.6835116550528349e-03  2.6888531256111844e-03  2.7022015728172181e-03  2.7259088619992927e-03  2.7617113602393588e-03  2.8097521249143094e-03  2.8724549137180526e-03  2.9993488256161256e-03  3.3014861685238288e-03  3.9728629419798923e-03  5.8427605083075365e-03  1.2335043352401074e-02  3.3220426224970075e-02  5.8631040260606553e-02  1.0917732660124319e-01  1.8942112981877057e-01  2.8501358206884092e-01  3.9271732180258612e-01  5.1547589025777485e-01  6.4455512366849255e-01  7.7793050845111611e-01  9.2803484759472687e-01  9.8699932585881189e-01  9.9531498951195785e-01  9.9756224850728326e-01  9.9602154452124736e-01  9.9608983181806754e-01  9.9773419285876463e-01  9.9622556330049594e-01  9.9175467323086264e-01  9.7424719255228265e-01  8.8942437410916986e-01  7.7149730975806718e-01  6.4734929305010702e-01  5.2526743633240280e-01  4.1069570161428232e-01  3.0764930416348441e-01  2.1341333947229077e-01  1.3641934068995742e-01  9.0862363037952240e-02  6.0716926109161427e-02  3.3380539652694698e-02  1.5226467217061114e-02  7.0559105810134555e-03  4.9827816028291481e-03  4.1831247712026667e-03  3.7323231380249015e-03  3.4710371998251822e-03  3.3228478370304544e-03  3.2410693074959702e-03  3.2018962326597353e-03  3.1926965607573590e-03  3.2086864447221208e-03  3.2548077214902644e-03  3.3453399185346096e-03  3.5008251001868106e-03  3.7401132038436796e-03  4.0523963254109931e-03  4.7121535487513987e-03  6.9587482734824622e-03  1.3675225077773790e-02  3.0739010050458024e-02  6.4579860805073303e-02  9.0138565298997123e-02  1.3215629720633035e-01  2.0754648540667692e-01  2.9538709879225555e-01  4.0047104620666751e-01  5.1902480822410191e-01  6.4398857294662204e-01  7.7061603701959192e-01  8.9701103630683687e-01  9.7652741020248301e-01  9.9167366875931739e-01  9.9610484884162798e-01  9.9768047139902138e-01  9.9632410330351018e-01  9.9303143215059586e-01  9.9662047723363856e-01  9.9501844879313850e-01  9.9124052676135810e-01  9.8119177485210951e-01  9.4539484511232008e-01  8.6033078135269880e-01  7.5432531655311819e-01  6.4016930299582842e-01  5.2629299177603162e-01  4.2001347537181505e-01  3.2627467479841554e-01  2.4129409420612730e-01  1.6723378527493005e-01  1.2038987493997588e-01  8.6986347685766657e-02  5.3909258735828774e-02  2.8703916685855577e-02  3.1507458068408600e-02  2.8449384816321720e-02  2.1321098563578174e-02  1.6670819823684888e-02  1.3953127255476542e-02  1.2447549184637641e-02  1.1726194505220392e-02  1.1522917609131041e-02  1.1741289133597722e-02  1.2452864297692046e-02  1.3835957975669990e-02  1.6132523663878750e-02  2.0030989088786779e-02  2.6717620034959984e-02  2.8648697523285464e-02  2.6463924185920203e-02  5.9727498061339257e-02  8.8546819733495347e-02  1.1768545695217521e-01  1.7140533016444301e-01  2.3522928660220913e-01  3.1197494486519184e-01  4.0954490010650685e-01  5.1986936415790730e-01  6.3667341743738415e-01  7.5342178152367389e-01  8.6222679648908962e-01  9.4800325442414890e-01  9.8055046978009375e-01  9.9048811000964243e-01  9.9460087174685929e-01  9.9640579189858103e-01  9.9464111695524671e-01  9.6403936570416204e-01  9.8653646784426363e-01  9.8524127345314172e-01  9.8181073507514915e-01  9.7397150825685785e-01  9.5345232542899683e-01  9.0634055456412232e-01  8.3162328997753832e-01  7.3734484565265079e-01  6.3482126583996035e-01  5.3208828997701207e-01  4.3737799650424503e-01  3.5626932717483650e-01  2.8621160648910371e-01  2.2485212823086795e-01  1.7969770333122201e-01  1.4588562897377616e-01  1.1444225738965150e-01  9.6901732736396518e-02  9.3299155730759059e-02  9.2109891685092066e-02  9.0212563436011722e-02  8.3638405687651407e-02  7.4326264300219144e-02  6.9902731192175854e-02  7.0945801675322037e-02  7.3725094004309419e-02  7.7644192403406642e-02  8.2941207310513285e-02  8.6931310130348424e-02  8.8830587706166086e-02  9.4269197080760717e-02  1.0081260255897513e-01  1.0741587238544900e-01  1.3247086996179619e-01  1.7609941822756398e-01  2.2365783627154973e-01  2.7510211011148067e-01  3.4240102356354929e-01  4.2806842179698251e-01  5.2633610686885590e-01  6.3164458733345163e-01  7.3609775420647228e-01  8.3138449839630912e-01  9.0787711081331568e-01  9.5348717751160417e-01  9.7342109379315522e-01  9.8075973016704743e-01  9.8540393206052768e-01  9.8760937150373385e-01  9.8112430948816043e-01  3.5143398836687623e-01  6.5183203926832489e-01  7.9680887244453480e-01  8.8895461867272019e-01  9.2339555840006271e-01  9.2845637529897784e-01  9.1215262961971255e-01  8.7181944221632923e-01  8.0751635466673077e-01  7.2658937382511724e-01  6.3816801278088009e-01  5.5053481077875188e-01  4.712461219