<?xml version="1.0"?>
<VTKFile type="UnstructuredGrid"  version="0.1"  >
<UnstructuredGrid>
<Piece  NumberOfPoints="2601" NumberOfCells="5000">
<Points>
<DataArray  type="Float64"  NumberOfComponents="3"  format="ascii">0 0 0  0.03 0 0  0.06 0 0  0.09 0 0  0.12 0 0  0.15 0 0  0.18 0 0  0.21 0 0  0.24 0 0  0.27 0 0  0.3 0 0  0.33 0 0  0.36 0 0  0.39 0 0  0.42 0 0  0.45 0 0  0.48 0 0  0.51 0 0  0.54 0 0  0.57 0 0  0.6 0 0  0.63 0 0  0.66 0 0  0.6899999999999999 0 0  0.72 0 0  0.75 0 0  0.78 0 0  0.8100000000000001 0 0  0.84 0 0  0.87 0 0  0.9 0 0  0.93 0 0  0.96 0 0  0.99 0 0  1.02 0 0  1.05 0 0  1.08 0 0  1.11 0 0  1.14 0 0  1.17 0 0  1.2 0 0  1.23 0 0  1.26 0 0  1.29 0 0  1.32 0 0  1.35 0 0  1.38 0 0  1.41 0 0  1.44 0 0  1.47 0 0  1.5 0 0  0 0.02 0  0.03 0.02 0  0.06 0.02 0  0.09 0.02 0  0.12 0.02 0  0.15 0.02 0  0.18 0.02 0  0.21 0.02 0  0.24 0.02 0  0.27 0.02 0  0.3 0.02 0  0.33 0.02 0  0.36 0.02 0  0.39 0.02 0  0.42 0.02 0  0.45 0.02 0  0.48 0.02 0  0.51 0.02 0  0.54 0.02 0  0.57 0.02 0  0.6 0.02 0  0.63 0.02 0  0.66 0.02 0  0.6899999999999999 0.02 0  0.72 0.02 0  0.75 0.02 0  0.78 0.02 0  0.8100000000000001 0.02 0  0.84 0.02 0  0.87 0.02 0  0.9 0.02 0  0.93 0.02 0  0.96 0.02 0  0.99 0.02 0  1.02 0.02 0  1.05 0.02 0  1.08 0.02 0  1.11 0.02 0  1.14 0.02 0  1.17 0.02 0  1.2 0.02 0  1.23 0.02 0  1.26 0.02 0  1.29 0.02 0  1.32 0.02 0  1.35 0.02 0  1.38 0.02 0  1.41 0.02 0  1.44 0.02 0  1.47 0.02 0  1.5 0.02 0  0 0.04 0  0.03 0.04 0  0.06 0.04 0  0.09 0.04 0  0.12 0.04 0  0.15 0.04 0  0.18 0.04 0  0.21 0.04 0  0.24 0.04 0  0.27 0.04 0  0.3 0.04 0  0.33 0.04 0  0.36 0.04 0  0.39 0.04 0  0.42 0.04 0  0.45 0.04 0  0.48 0.04 0  0.51 0.04 0  0.54 0.04 0  0.57 0.04 0  0.6 0.04 0  0.63 0.04 0  0.66 0.04 0  0.6899999999999999 0.04 0  0.72 0.04 0  0.75 0.04 0  0.78 0.04 0  0.8100000000000001 0.04 0  0.84 0.04 0  0.87 0.04 0  0.9 0.04 0  0.93 0.04 0  0.96 0.04 0  0.99 0.04 0  1.02 0.04 0  1.05 0.04 0  1.08 0.04 0  1.11 0.04 0  1.14 0.04 0  1.17 0.04 0  1.2 0.04 0  1.23 0.04 0  1.26 0.04 0  1.29 0.04 0  1.32 0.04 0  1.35 0.04 0  1.38 0.04 0  1.41 0.04 0  1.44 0.04 0  1.47 0.04 0  1.5 0.04 0  0 0.06 0  0.03 0.06 0  0.06 0.06 0  0.09 0.06 0  0.12 0.06 0  0.15 0.06 0  0.18 0.06 0  0.21 0.06 0  0.24 0.06 0  0.27 0.06 0  0.3 0.06 0  0.33 0.06 0  0.36 0.06 0  0.39 0.06 0  0.42 0.06 0  0.45 0.06 0  0.48 0.06 0  0.51 0.06 0  0.54 0.06 0  0.57 0.06 0  0.6 0.06 0  0.63 0.06 0  0.66 0.06 0  0.6899999999999999 0.06 0  0.72 0.06 0  0.75 0.06 0  0.78 0.06 0  0.8100000000000001 0.06 0  0.84 0.06 0  0.87 0.06 0  0.9 0.06 0  0.93 0.06 0  0.96 0.06 0  0.99 0.06 0  1.02 0.06 0  1.05 0.06 0  1.08 0.06 0  1.11 0.06 0  1.14 0.06 0  1.17 0.06 0  1.2 0.06 0  1.23 0.06 0  1.26 0.06 0  1.29 0.06 0  1.32 0.06 0  1.35 0.06 0  1.38 0.06 0  1.41 0.06 0  1.44 0.06 0  1.47 0.06 0  1.5 0.06 0  0 0.08 0  0.03 0.08 0  0.06 0.08 0  0.09 0.08 0  0.12 0.08 0  0.15 0.08 0  0.18 0.08 0  0.21 0.08 0  0.24 0.08 0  0.27 0.08 0  0.3 0.08 0  0.33 0.08 0  0.36 0.08 0  0.39 0.08 0  0.42 0.08 0  0.45 0.08 0  0.48 0.08 0  0.51 0.08 0  0.54 0.08 0  0.57 0.08 0  0.6 0.08 0  0.63 0.08 0  0.66 0.08 0  0.6899999999999999 0.08 0  0.72 0.08 0  0.75 0.08 0  0.78 0.08 0  0.8100000000000001 0.08 0  0.84 0.08 0  0.87 0.08 0  0.9 0.08 0  0.93 0.08 0  0.96 0.08 0  0.99 0.08 0  1.02 0.08 0  1.05 0.08 0  1.08 0.08 0  1.11 0.08 0  1.14 0.08 0  1.17 0.08 0  1.2 0.08 0  1.23 0.08 0  1.26 0.08 0  1.29 0.08 0  1.32 0.08 0  1.35 0.08 0  1.38 0.08 0  1.41 0.08 0  1.44 0.08 0  1.47 0.08 0  1.5 0.08 0  0 0.1 0  0.03 0.1 0  0.06 0.1 0  0.09 0.1 0  0.12 0.1 0  0.15 0.1 0  0.18 0.1 0  0.21 0.1 0  0.24 0.1 0  0.27 0.1 0  0.3 0.1 0  0.33 0.1 0  0.36 0.1 0  0.39 0.1 0  0.42 0.1 0  0.45 0.1 0  0.48 0.1 0  0.51 0.1 0  0.54 0.1 0  0.57 0.1 0  0.6 0.1 0  0.63 0.1 0  0.66 0.1 0  0.6899999999999999 0.1 0  0.72 0.1 0  0.75 0.1 0  0.78 0.1 0  0.8100000000000001 0.1 0  0.84 0.1 0  0.87 0.1 0  0.9 0.1 0  0.93 0.1 0  0.96 0.1 0  0.99 0.1 0  1.02 0.1 0  1.05 0.1 0  1.08 0.1 0  1.11 0.1 0  1.14 0.1 0  1.17 0.1 0  1.2 0.1 0  1.23 0.1 0  1.26 0.1 0  1.29 0.1 0  1.32 0.1 0  1.35 0.1 0  1.38 0.1 0  1.41 0.1 0  1.44 0.1 0  1.47 0.1 0  1.5 0.1 0  0 0.12 0  0.03 0.12 0  0.06 0.12 0  0.09 0.12 0  0.12 0.12 0  0.15 0.12 0  0.18 0.12 0  0.21 0.12 0  0.24 0.12 0  0.27 0.12 0  0.3 0.12 0  0.33 0.12 0  0.36 0.12 0  0.39 0.12 0  0.42 0.12 0  0.45 0.12 0  0.48 0.12 0  0.51 0.12 0  0.54 0.12 0  0.57 0.12 0  0.6 0.12 0  0.63 0.12 0  0.66 0.12 0  0.6899999999999999 0.12 0  0.72 0.12 0  0.75 0.12 0  0.78 0.12 0  0.8100000000000001 0.12 0  0.84 0.12 0  0.87 0.12 0  0.9 0.12 0  0.93 0.12 0  0.96 0.12 0  0.99 0.12 0  1.02 0.12 0  1.05 0.12 0  1.08 0.12 0  1.11 0.12 0  1.14 0.12 0  1.17 0.12 0  1.2 0.12 0  1.23 0.12 0  1.26 0.12 0  1.29 0.12 0  1.32 0.12 0  1.35 0.12 0  1.38 0.12 0  1.41 0.12 0  1.44 0.12 0  1.47 0.12 0  1.5 0.12 0  0 0.14 0  0.03 0.14 0  0.06 0.14 0  0.09 0.14 0  0.12 0.14 0  0.15 0.14 0  0.18 0.14 0  0.21 0.14 0  0.24 0.14 0  0.27 0.14 0  0.3 0.14 0  0.33 0.14 0  0.36 0.14 0  0.39 0.14 0  0.42 0.14 0  0.45 0.14 0  0.48 0.14 0  0.51 0.14 0  0.54 0.14 0  0.57 0.14 0  0.6 0.14 0  0.63 0.14 0  0.66 0.14 0  0.6899999999999999 0.14 0  0.72 0.14 0  0.75 0.14 0  0.78 0.14 0  0.8100000000000001 0.14 0  0.84 0.14 0  0.87 0.14 0  0.9 0.14 0  0.93 0.14 0  0.96 0.14 0  0.99 0.14 0  1.02 0.14 0  1.05 0.14 0  1.08 0.14 0  1.11 0.14 0  1.14 0.14 0  1.17 0.14 0  1.2 0.14 0  1.23 0.14 0  1.26 0.14 0  1.29 0.14 0  1.32 0.14 0  1.35 0.14 0  1.38 0.14 0  1.41 0.14 0  1.44 0.14 0  1.47 0.14 0  1.5 0.14 0  0 0.16 0  0.03 0.16 0  0.06 0.16 0  0.09 0.16 0  0.12 0.16 0  0.15 0.16 0  0.18 0.16 0  0.21 0.16 0  0.24 0.16 0  0.27 0.16 0  0.3 0.16 0  0.33 0.16 0  0.36 0.16 0  0.39 0.16 0  0.42 0.16 0  0.45 0.16 0  0.48 0.16 0  0.51 0.16 0  0.54 0.16 0  0.57 0.16 0  0.6 0.16 0  0.63 0.16 0  0.66 0.16 0  0.6899999999999999 0.16 0  0.72 0.16 0  0.75 0.16 0  0.78 0.16 0  0.8100000000000001 0.16 0  0.84 0.16 0  0.87 0.16 0  0.9 0.16 0  0.93 0.16 0  0.96 0.16 0  0.99 0.16 0  1.02 0.16 0  1.05 0.16 0  1.08 0.16 0  1.11 0.16 0  1.14 0.16 0  1.17 0.16 0  1.2 0.16 0  1.23 0.16 0  1.26 0.16 0  1.29 0.16 0  1.32 0.16 0  1.35 0.16 0  1.38 0.16 0  1.41 0.16 0  1.44 0.16 0  1.47 0.16 0  1.5 0.16 0  0 0.18 0  0.03 0.18 0  0.06 0.18 0  0.09 0.18 0  0.12 0.18 0  0.15 0.18 0  0.18 0.18 0  0.21 0.18 0  0.24 0.18 0  0.27 0.18 0  0.3 0.18 0  0.33 0.18 0  0.36 0.18 0  0.39 0.18 0  0.42 0.18 0  0.45 0.18 0  0.48 0.18 0  0.51 0.18 0  0.54 0.18 0  0.57 0.18 0  0.6 0.18 0  0.63 0.18 0  0.66 0.18 0  0.6899999999999999 0.18 0  0.72 0.18 0  0.75 0.18 0  0.78 0.18 0  0.8100000000000001 0.18 0  0.84 0.18 0  0.87 0.18 0  0.9 0.18 0  0.93 0.18 0  0.96 0.18 0  0.99 0.18 0  1.02 0.18 0  1.05 0.18 0  1.08 0.18 0  1.11 0.18 0  1.14 0.18 0  1.17 0.18 0  1.2 0.18 0  1.23 0.18 0  1.26 0.18 0  1.29 0.18 0  1.32 0.18 0  1.35 0.18 0  1.38 0.18 0  1.41 0.18 0  1.44 0.18 0  1.47 0.18 0  1.5 0.18 0  0 0.2 0  0.03 0.2 0  0.06 0.2 0  0.09 0.2 0  0.12 0.2 0  0.15 0.2 0  0.18 0.2 0  0.21 0.2 0  0.24 0.2 0  0.27 0.2 0  0.3 0.2 0  0.33 0.2 0  0.36 0.2 0  0.39 0.2 0  0.42 0.2 0  0.45 0.2 0  0.48 0.2 0  0.51 0.2 0  0.54 0.2 0  0.57 0.2 0  0.6 0.2 0  0.63 0.2 0  0.66 0.2 0  0.6899999999999999 0.2 0  0.72 0.2 0  0.75 0.2 0  0.78 0.2 0  0.8100000000000001 0.2 0  0.84 0.2 0  0.87 0.2 0  0.9 0.2 0  0.93 0.2 0  0.96 0.2 0  0.99 0.2 0  1.02 0.2 0  1.05 0.2 0  1.08 0.2 0  1.11 0.2 0  1.14 0.2 0  1.17 0.2 0  1.2 0.2 0  1.23 0.2 0  1.26 0.2 0  1.29 0.2 0  1.32 0.2 0  1.35 0.2 0  1.38 0.2 0  1.41 0.2 0  1.44 0.2 0  1.47 0.2 0  1.5 0.2 0  0 0.22 0  0.03 0.22 0  0.06 0.22 0  0.09 0.22 0  0.12 0.22 0  0.15 0.22 0  0.18 0.22 0  0.21 0.22 0  0.24 0.22 0  0.27 0.22 0  0.3 0.22 0  0.33 0.22 0  0.36 0.22 0  0.39 0.22 0  0.42 0.22 0  0.45 0.22 0  0.48 0.22 0  0.51 0.22 0  0.54 0.22 0  0.57 0.22 0  0.6 0.22 0  0.63 0.22 0  0.66 0.22 0  0.6899999999999999 0.22 0  0.72 0.22 0  0.75 0.22 0  0.78 0.22 0  0.8100000000000001 0.22 0  0.84 0.22 0  0.87 0.22 0  0.9 0.22 0  0.93 0.22 0  0.96 0.22 0  0.99 0.22 0  1.02 0.22 0  1.05 0.22 0  1.08 0.22 0  1.11 0.22 0  1.14 0.22 0  1.17 0.22 0  1.2 0.22 0  1.23 0.22 0  1.26 0.22 0  1.29 0.22 0  1.32 0.22 0  1.35 0.22 0  1.38 0.22 0  1.41 0.22 0  1.44 0.22 0  1.47 0.22 0  1.5 0.22 0  0 0.24 0  0.03 0.24 0  0.06 0.24 0  0.09 0.24 0  0.12 0.24 0  0.15 0.24 0  0.18 0.24 0  0.21 0.24 0  0.24 0.24 0  0.27 0.24 0  0.3 0.24 0  0.33 0.24 0  0.36 0.24 0  0.39 0.24 0  0.42 0.24 0  0.45 0.24 0  0.48 0.24 0  0.51 0.24 0  0.54 0.24 0  0.57 0.24 0  0.6 0.24 0  0.63 0.24 0  0.66 0.24 0  0.6899999999999999 0.24 0  0.72 0.24 0  0.75 0.24 0  0.78 0.24 0  0.8100000000000001 0.24 0  0.84 0.24 0  0.87 0.24 0  0.9 0.24 0  0.93 0.24 0  0.96 0.24 0  0.99 0.24 0  1.02 0.24 0  1.05 0.24 0  1.08 0.24 0  1.11 0.24 0  1.14 0.24 0  1.17 0.24 0  1.2 0.24 0  1.23 0.24 0  1.26 0.24 0  1.29 0.24 0  1.32 0.24 0  1.35 0.24 0  1.38 0.24 0  1.41 0.24 0  1.44 0.24 0  1.47 0.24 0  1.5 0.24 0  0 0.26 0  0.03 0.26 0  0.06 0.26 0  0.09 0.26 0  0.12 0.26 0  0.15 0.26 0  0.18 0.26 0  0.21 0.26 0  0.24 0.26 0  0.27 0.26 0  0.3 0.26 0  0.33 0.26 0  0.36 0.26 0  0.39 0.26 0  0.42 0.26 0  0.45 0.26 0  0.48 0.26 0  0.51 0.26 0  0.54 0.26 0  0.57 0.26 0  0.6 0.26 0  0.63 0.26 0  0.66 0.26 0  0.6899999999999999 0.26 0  0.72 0.26 0  0.75 0.26 0  0.78 0.26 0  0.8100000000000001 0.26 0  0.84 0.26 0  0.87 0.26 0  0.9 0.26 0  0.93 0.26 0  0.96 0.26 0  0.99 0.26 0  1.02 0.26 0  1.05 0.26 0  1.08 0.26 0  1.11 0.26 0  1.14 0.26 0  1.17 0.26 0  1.2 0.26 0  1.23 0.26 0  1.26 0.26 0  1.29 0.26 0  1.32 0.26 0  1.35 0.26 0  1.38 0.26 0  1.41 0.26 0  1.44 0.26 0  1.47 0.26 0  1.5 0.26 0  0 0.28 0  0.03 0.28 0  0.06 0.28 0  0.09 0.28 0  0.12 0.28 0  0.15 0.28 0  0.18 0.28 0  0.21 0.28 0  0.24 0.28 0  0.27 0.28 0  0.3 0.28 0  0.33 0.28 0  0.36 0.28 0  0.39 0.28 0  0.42 0.28 0  0.45 0.28 0  0.48 0.28 0  0.51 0.28 0  0.54 0.28 0  0.57 0.28 0  0.6 0.28 0  0.63 0.28 0  0.66 0.28 0  0.6899999999999999 0.28 0  0.72 0.28 0  0.75 0.28 0  0.78 0.28 0  0.8100000000000001 0.28 0  0.84 0.28 0  0.87 0.28 0  0.9 0.28 0  0.93 0.28 0  0.96 0.28 0  0.99 0.28 0  1.02 0.28
[...]
<PointData  Scalars="ControlVisualisation"> 
<DataArray  type="Float64"  Name="ControlVisualisation"  format="ascii">2.9885868172252467e-01  2.3362440918041233e-01  2.3381876490811482e-01  2.3422618120339272e-01  2.3484595748970205e-01  2.3559140540671217e-01  2.3635427242875418e-01  2.3705421649003464e-01  2.3764654952162029e-01  2.3811460615094912e-01  2.3846258242146431e-01  2.3870750945141078e-01  2.3886983984364429e-01  2.3896696518076352e-01  2.3901290405763065e-01  2.3902414657656285e-01  2.3902328829580660e-01  2.3903042724489729e-01  2.3905134685466961e-01  2.3907867514399087e-01  2.3910279799513953e-01  2.3911894117650245e-01  2.3912695707202899e-01  2.3912880516469542e-01  2.3912692772341337e-01  2.3912339190212401e-01  2.3911944241497038e-01  2.3911566943036799e-01  2.3911253932155463e-01  2.3911041661141158e-01  2.3910880325440007e-01  2.3910583146478484e-01  2.3909879295264946e-01  2.3908475704543936e-01  2.3906026745905284e-01  2.3902056625168866e-01  2.3895878777646976e-01  2.3886498302512382e-01  2.3872536056447219e-01  2.3852188506393851e-01  2.3823198457696695e-01  2.3783108247097864e-01  2.3730166195508651e-01  2.3664635590230906e-01  2.3589883400154080e-01  2.3513040072427815e-01  2.3444648229550291e-01  2.3395111418694903e-01  2.3368244974949978e-01  2.3357947176939992e-01  4.1549675137017689e-01  2.3359782108830740e-01  1.4011199122024284e-01  1.4072680047640587e-01  1.4211634094148407e-01  1.4435052327866893e-01  1.4714294027799135e-01  1.5007089688949671e-01  1.5279264651145746e-01  1.5510829764761619e-01  1.5693755544971258e-01  1.5829020693500515e-01  1.5923374584084168e-01  1.5985478151790083e-01  1.6023013855554397e-01  1.6041901298262595e-01  1.6048000975631735e-01  1.6049258289377749e-01  1.6053552582926789e-01  1.6063825397766809e-01  1.6077495869860578e-01  1.6090505197250016e-01  1.6100487766478636e-01  1.6106948329838167e-01  1.6110335026128297e-01  1.6111433086781651e-01  1.6111017331695190e-01  1.6109595424866527e-01  1.6107399918906343e-01  1.6104622956326264e-01  1.6101521815914052e-01  1.6098143712539584e-01  1.6094044826365761e-01  1.6088484501187419e-01  1.6080780112468968e-01  1.6070238237139656e-01  1.6055769672568809e-01  1.6035446529282502e-01  1.6005943983092377e-01  1.5962115690521947e-01  1.5896963454362009e-01  1.5801539218491684e-01  1.5665258529945131e-01  1.5478830264250124e-01  1.5239792073571401e-01  1.4957799642283942e-01  1.4658350886970448e-01  1.4382196615401488e-01  1.4173375014817757e-01  1.4053683053937718e-01  1.4004788253927924e-01  2.3357527267402750e-01  2.3366482814820050e-01  1.4037206776836855e-01  1.4161330737476288e-01  1.4434075675113786e-01  1.4864052796596824e-01  1.5387309832334112e-01  1.5918754356911294e-01  1.6395166388469015e-01  1.6783942437145286e-01  1.7075706127294168e-01  1.7278025243843501e-01  1.7408917716312111e-01  1.7488366137218991e-01  1.7532353410614018e-01  1.7551152135167059e-01  1.7552543794854414e-01  1.7548707679075717e-01  1.7553810396947817e-01  1.7572679036079944e-01  1.7599134437602437e-01  1.7625125353315474e-01  1.7646563417920677e-01  1.7662423177973358e-01  1.7672776047859370e-01  1.7678251554539953e-01  1.7679786312113910e-01  1.7678102110421789e-01  1.7673508965999521e-01  1.7666310267888993e-01  1.7657145089621881e-01  1.7646572147351455e-01  1.7634513592421164e-01  1.7620670076983824e-01  1.7605199062677776e-01  1.7588313851452031e-01  1.7569479396567320e-01  1.7546919657068924e-01  1.7516554506925561e-01  1.7470518221983175e-01  1.7396406888447252e-01  1.7276140892151903e-01  1.7085307408113426e-01  1.6799480932763974e-01  1.6406272469177061e-01  1.5915221209908839e-01  1.5365593866157187e-01  1.4829839323005320e-01  1.4400835865694644e-01  1.4140862087285888e-01  1.4028742768278846e-01  2.3362227090624310e-01  2.3375152117001124e-01  1.4084789269834999e-01  1.4318283393315365e-01  1.4774736121304483e-01  1.5423238858809510e-01  1.6138686116042034e-01  1.6802964441992957e-01  1.7351106175106829e-01  1.7759511189731642e-01  1.8028885333540046e-01  1.8181951702861734e-01  1.8255819856204006e-01  1.8284873704056470e-01  1.8290753734032889e-01  1.8281703426018323e-01  1.8258409816735710e-01  1.8232059731717576e-01  1.8223755526512858e-01  1.8239369377894099e-01  1.8266214675508918e-01  1.8292069555790433e-01  1.8313289621279888e-01  1.8329910136934741e-01  1.8341815243065870e-01  1.8348928529840566e-01  1.8351750210408124e-01  1.8350934277344971e-01  1.8346909143794418e-01  1.8340180834475830e-01  1.8331675071998141e-01  1.8322208743544013e-01  1.8311855030675192e-01  1.8300854629623484e-01  1.8290608714655401e-01  1.8282523667625677e-01  1.8277099072681491e-01  1.8274713469467513e-01  1.8274843648706168e-01  1.8272882124662160e-01  1.8257071177976714e-01  1.8203474505091780e-01  1.8071132196611528e-01  1.7813983718738918e-01  1.7403259019114717e-01  1.6837087489569602e-01  1.6142847429821794e-01  1.5393746949169135e-01  1.4726168465684031e-01  1.4276881517721079e-01  1.4065946086570899e-01  2.3370001340291419e-01  2.3382456434004231e-01  1.4179013945895300e-01  1.4679932172066054e-01  1.5518897945577248e-01  1.6509716493433133e-01  1.7420882021761458e-01  1.8144070359269496e-01  1.8670729072503897e-01  1.9010339009046870e-01  1.9170490129511092e-01  1.9191997042825085e-01  1.9142902861677327e-01  1.9076491099927020e-01  1.9015747926502988e-01  1.8959973123918999e-01  1.8891005021596038e-01  1.8815947495428331e-01  1.8774219156343483e-01  1.8775087513995076e-01  1.8791747592973407e-01  1.8805354149582268e-01  1.8815298273711328e-01  1.8824397179532534e-01  1.8832278751013948e-01  1.8837691492486383e-01  1.8840508524950428e-01  1.8841389941156420e-01  1.8841103181811200e-01  1.8840634860275576e-01  1.8841426431569530e-01  1.8844498084511044e-01  1.8849432458771498e-01  1.8856315558866454e-01  1.8867741896631271e-01  1.8885920208553036e-01  1.8911232549531903e-01  1.8946247617947512e-01  1.8996784836963326e-01  1.9067028316749343e-01  1.9153670959788480e-01  1.9233472591902481e-01  1.9243836946112608e-01  1.9106379603019372e-01  1.8777229370673568e-01  1.8245814501391161e-01  1.7495726837554124e-01  1.6530185009486167e-01  1.5470121410246515e-01  1.4598310556478516e-01  1.4132797501156569e-01  2.3377364154152350e-01  2.3396363009603582e-01  1.4404646005192967e-01  1.5667248654496202e-01  1.7436131706028657e-01  1.8881788017876386e-01  1.9696370665678398e-01  2.0108879619875575e-01  2.0373872991037781e-01  2.0543154824215001e-01  2.0533798235355818e-01  2.0351336292345443e-01  2.0120593927967412e-01  1.9927381460167184e-01  1.9786368474383975e-01  1.9682065319021633e-01  1.9557737242027987e-01  1.9405332646210455e-01  1.9309982127266093e-01  1.9289069962797051e-01  1.9284089348693584e-01  1.9267583893043205e-01  1.9249451410978130e-01  1.9238741598151465e-01  1.9234447965877216e-01  1.9233259663073510e-01  1.9234104907965394e-01  1.9237672731674060e-01  1.9245194875062660e-01  1.9258306340699294e-01  1.9279199203453573e-01  1.9309136191311790e-01  1.9346179665933178e-01  1.9388618605294833e-01  1.9440262238853326e-01  1.9504450614834762e-01  1.9579156926159824e-01  1.9665861259516595e-01  1.9774617328072436e-01  1.9917951352255164e-01  2.0107014657225425e-01  2.0337661234422816e-01  2.0537230638505960e-01  2.0605582175598872e-01  2.0530895204968402e-01  2.0326589966327041e-01  1.9908499218563352e-01  1.9057422994143799e-01  1.7426488463723666e-01  1.5475442841018128e-01  1.4285225022740641e-01  2.3382659696015901e-01  2.3491122781863319e-01  1.5185975002425975e-01  1.8929047041570482e-01  2.3672322345233279e-01  2.5416571970913082e-01  2.4998513122624047e-01  2.3809658892365593e-01  2.2692784266366628e-01  2.2104894954958193e-01  2.1845968535190496e-01  2.1523853503832935e-01  2.1151326561230865e-01  2.0864545081982350e-01  2.0658483943805978e-01  2.0499898794287411e-01  2.0306993417128644e-01  2.0036237088390479e-01  1.9867516553512846e-01  1.9840022902005980e-01  1.9818204733906614e-01  1.9757419710019841e-01  1.9693871135278562e-01  1.9649567953670244e-01  1.9623091251501434e-01  1.9608614021419529e-01  1.9604182216656110e-01  1.9610599997047168e-01  1.9629386753552802e-01  1.9662610975462877e-01  1.9713218793046494e-01  1.9783122655093130e-01  1.9869378658270637e-01  1.9967821264544455e-01  2.0083832756282935e-01  2.0217310664118449e-01  2.0353665595658926e-01  2.0488931611825892e-01  2.0637608354824977e-01  2.0825857602047393e-01  2.1116802956132474e-01  2.1576295153722505e-01  2.2078186194683988e-01  2.2523311754457256e-01  2.3096851856842393e-01  2.3794603540314418e-01  2.4408784939403488e-01  2.4605088212036710e-01  2.3192928413879199e-01  1.9378184025471010e-01  1.4994870831377499e-01  2.3403130165161365e-01  2.4291414792398935e-01  1.9255000913989306e-01  2.7586827792226853e-01  3.3640417188909982e-01  3.5674814338191430e-01  3.5430061510831534e-01  3.4339060852002501e-01  3.1635011415376341e-01  2.8154075288404773e-01  2.4788313484617064e-01  2.2561792735233382e-01  2.1670055243195185e-01  2.1523156443557884e-01  2.1535304624013119e-01  2.1490250026075897e-01  2.1233028579602692e-01  2.0779050749151409e-01  2.0498705617020857e-01  2.0443842362038381e-01  2.0393690200272807e-01  2.0290663251694122e-01  2.0181311445236175e-01  2.0100388231952340e-01  2.0047505590828463e-01  2.0015526780792448e-01  2.0003186724244221e-01  2.0012338186116749e-01  2.0044702892656727e-01  2.0103314415531529e-01  2.0194390776281906e-01  2.0321438265085526e-01  2.0474180994024019e-01  2.0639134891741964e-01  2.0833257753909742e-01  2.1055333119762396e-01  2.1220244007895694e-01  2.1249614152741181e-01  2.1174573550679610e-01  2.1170482769547522e-01  2.1653260637106897e-01  2.3355394483093861e-01  2.6249444249112897e-01  2.9013616264719561e-01  3.0800223896074630e-01  3.1927998385186745e-01  3.3023722812930228e-01  3.4281660981408890e-01  3.4235455949774779e-01  3.1587522402966595e-01  1.9138442654530960e-01  2.3547022180187058e-01  3.0040183417888805e-01  3.4420753005009125e-01  4.1084859477270175e-01  3.9994994604385525e-01  3.9764272603950745e-01  3.9597830378238219e-01  3.9522476800974393e-01  3.8875610618822970e-01  3.6699472939367683e-01  3.3020886365025609e-01  2.7953289153111588e-01  2.3424212630087085e-01  2.1123038494031104e-01  2.0994664424120596e-01  2.1520751014340769e-01  2.2163449597280760e-01  2.1867737288233119e-01  2.1433604580335724e-01  2.1317738041578344e-01  2.1155618878435015e-01  2.0937844690106366e-01  2.0768114284289527e-01  2.0645480428812599e-01  2.0561766651809951e-01  2.0510350537947811e-01  2.0491470167924039e-01  2.0507431640524984e-01  2.0559291910043659e-01  2.0650622326701157e-01  2.0793042516887567e-01  2.0998105585379997e-01  2.1234412349532691e-01  2.1442999230779591e-01  2.1615416491350903e-01  2.1726964796714332e-01  2.1667252231299877e-01  2.1300248823221693e-01  2.0857244668392627e-01  2.1212372265230262e-01  2.3448035327512431e-01  2.7687784967662438e-01  3.2643570841601954e-01  3.6056342788934254e-01  3.7775992944524672e-01  3.8852946869959498e-01  3.9976126066855300e-01  4.1494318957116910e-01  4.2923577591033618e-01  4.1986197438212575e-01  3.6860126177083574e-01  2.7149421554185527e-01  4.6682182433116548e-01  4.8393608289327983e-01  4.8363221610091467e-01  4.5096498100862409e-01  4.2441028024000282e-01  4.0574333684576580e-01  4.0290680209755159e-01  4.0453958672204543e-01  3.9990329941359071e-01  3.7763763461176147e-01  3.3514455852264580e-01  2.8871877324509743e-01  2.4896647429800703e-01  2.1645942109577845e-01  1.9429498199763073e-01  1.9538935609341995e-01  2.1884082688468570e-01  1.8994173162849326e-01  2.1523229650187897e-01  2.1991714416802705e-01  2.1732829831381728e-01  2.1431170374857877e-01  2.1274789620744489e-01  2.1190343337319620e-01  2.1123262100386930e-01  2.1090504316467701e-01  2.1098780125220307e-01  2.1149826513435682e-01  2.1269158501714625e-01  2.1465888128195959e-01  2.1707868018699505e-01  2.1917671608707612e-01  2.1907442923732906e-01  2.1820664908764037e-01  2.1444821297940439e-01  2.0579418401186736e-01  2.0419797524808120e-01  2.1863770865173288e-01  2.4781323044611345e-01  2.8657141926184010e-01  3.2722714000031139e-01  3.6735660544484355e-01  3.9920411437105469e-01  4.1321299323688448e-01  4.1604809872742204e-01  4.2039853694722823e-01  4.3896653872130054e-01  4.6819252935722500e-01  4.7698659349046446e-01  4.4970615970964473e-01  4.7315472253083085e-01  6.0457056571419543e-01  6.1583955189259809e-01  6.0141745929958079e-01  5.6109010468262688e-01  5.0203904179231607e-01  4.5303209851323634e-01  4.2596019389866979e-01  4.1818772001762206e-01  4.1837308742086632e-01  4.1152440625343545e-01  3.8479334875224064e-01  3.4850491272647804e-01  3.0937265786276291e-01  2.6985324467098315e-01  2.3506123331241335e-01  2.0822259933553175e-01  1.9472656961939264e-01  2.1107040003243005e-01  2.1426043794382171e-01  2.0415241271705931e-01  2.1300049138825347e-01  2.1149835737349326e-01  2.1088109342380293e-01  2.1385281359328970e-01  2.1513525430671881e-01  2.1516796543607775e-01  2.1475165290746920e-01  2.1384494247453747e-01  2.1330915508022358e-01  2.1523249004936595e-01  2.1700304287776706e-01  2.1508260323491585e-01  2.0850750576215243e-01  2.0208637052232248e-01  2.0259801503032226e-01  2.1012810918287517e-01  2.2961664686087210e-01  2.6624969492781170e-01  3.1114588992290909e-01  3.5047187413710740e-01  3.8326220691360530e-01  4.0958253319905435e-01  4.2414425627424235e-01  4.2996944162412681e-01  4.3901771195024925e-01  4.6107876462356845e-01  4.9167922372230694e-01  5.2879448701135667e-01  5.6874473361765143e-01  6.2479557627820637e-01  5.8408342034540039e-01  7.2363931423102956e-01  7.5780817365138931e-01  6.6598276361129716e-01  6.2151103388204143e-01  5.8936650695173720e-01  5.2885580583432223e-01  4.6769523028937032e-01  4.3421672651985016e-01  4.2611752909613820e-01  4.2573278288803124e-01  4.1405903501985752e-01  3.8865114539182738e-01  3.6082637054474520e-01  3.2997795702791755e-01  2.9553368811867819e-01  2.6023138472651719e-01  2.2248393898278249e-01  2.0040069959985890e-01  1.9776610339693207e-01  1.9324549103729502e-01  1.9617039143513004e-01  2.0389327753070041e-01  2.0645854888726128e-01  2.0802673938440208e-01  2.0957989565164958e-01  2.1011959252464812e-01  2.0971573362806145e-01  2.0848891363526997e-01  2.0680035713533024e-01  2.0570176847445570e-01  2.0512943620684526e-01  2.0397223341572393e-01  2.0363145642657349e-01  2.0927152311198230e-01  2.2579025873216049e-01  2.5339259375697898e-01  2.8975533299204953e-01  3.2848610163894310e-01  3.6187125112926749e-01  3.8951886412989423e-01  4.1122676993069418e-01  4.2336430977565470e-01  4.2976130847982708e-01  4.4237019164636970e-01  4.7241208079431501e-01  5.1691512538233952e-01  5.6166218279466129e-01  5.9962671234549492e-01  6.7173749311777031e-01  7.6767474140196690e-01  7.0788446135912420e-01  7.6988188012981174e-01  8.1836865181204588e-01  7.2286203435458340e-01  6.3174449172529445e-01  5.9732533024679935e-01  5.7886213404044184e-01  5.2481862105540222e-01  4.6501616671665530e-01  4.3167224256828279e-01  4.2246844674344380e-01  4.1969235442333674e-01  4.1015076528723193e-01  3.9198581995300219e-01  3.6995835256572235e-01  3.4509803778265402e-01  3.1598994810336523e-01  2.8216276352291614e-01  2.5081366673371819e-01  2.3200276786097518e-01  2.1684460522807578e-01  2.0119956033893108e-01  1.9558563793419853e-01  1.9623481434313794e-01  1.9780256104726543e-01  1.9910994552614122e-01  1.9970453921718118e-01  1.9945289659502008e-01  1.9876225373093914e-01  1.9865731978461401e-01  2.0057470112896800e-01  2.0576985350335406e-01  2.1586486095370105e-01  2.3353799634160313e-01  2.5916342918143365e-01  2.8837820615544324e-01  3.1727096434491875e-01  3.4493372082034607e-01  3.7098725569085622e-01  3.9337118933818804e-01  4.0895987588248611e-01  4.1679634338625715e-01  4.2170790306472411e-01  4.3406751601325544e-01  4.6511894887363819e-01  5.1283687114615351e-01  5.5739505235908093e-01  5.8778916529785941e-01  6.3794735709814887e-01  7.2971316155748900e-01  8.2056475060058975e-01  7.6328033699348674e-01  7.6350108804351902e-01  8.2299455925524145e-01  7.3471181015850617e-01  6.3605140315303188e-01  5.7726116909728709e-01  5.6439978617137121e-01  5.4858441077941855e-01  5.0128878107597519e-01  4.4924812853838841e-01  4.2066097466129848e-01  4.1241459087112997e-01  4.1106679398962775e-01  4.0725795927955005e-01  3.9713141809803942e-01  3.8119174304018522e-01  3.6146345748484632e-01  3.3969404846541007e-01  3.1886258806056700e-01  3.0244911860554324e-01  2.8725803309663900e-01  2.6805498372370345e-01  2.4978960953182397e-01  2.3736891778465019e-01  2.2934345596937022e-01  2.2452858549382890e-01  2.2308228793859461e-01  2.2503173341256066e-01  2.3015183232235137e-01  2.3834018588305456e-01  2.4959751326564930e-01  2.6396262914154034e-01  2.8154747471448710e-01  3.0197526885428194e-01  3.2381115611723754e-01  3.4532471074053894e-01  3.6541849011149019e-01  3.8346064792796408e-01  3.9789948820917126e-01  4.0643289891036083e-01  4.0944751732638573e-01  4.1174835714386626e-01  4.2146629233987598e-01  4.4779627887192469e-01  4.9139482489122566e-01  5.3400143473363715e-01  5.5942312530336957e-01  5.8128984217882151e-01  6.3841569270467591e-01  7.3300852257841953e-01  8.2115764499080623e-01  7.7016779572213745e-01  7.0617522134730615e-01  7.7409736672332952e-01  6.8826508947113096e-01  6.0596191401109456e-01  5.5612951573863012e-01  5.3748239157094257e-01  5.3115154329040004e-01  5.1332132833023036e-01  4.7373891297845561e-01  4.3258418235252366e-01  4.0883182632929876e-01  4.0173195449639465e-01  4.0249234760420705e-01  4.0359305558907987e-01  4.0062177842864688e-01  3.9239186977427160e-01  3.8088071831289105e-01  3.6952611426036763e-01  3.6014119812730183e-01  3.5139659577863919e-01  3.4166015692059409e-01  3.3235972886963105e-01  3.2499599547911895e-01  3.1902426672390766e-01  3.1449757503048847e-01  3.1278194782191526e-01  3.1467357491339842e-01  3.1940246104778680e-01  3.2555224885187134e-01  3.3232445034544628e-01  3.3995919043141920e-01  3.4926491154003225e-01  3.6074201335419520e-01  3.7372391554658446e-01  3.8613151017651448e-01  3.9561288826694502e-01  4.0099034643215470e-01  4.0221950754163194e-01  4.0088449093311562e-01  4.0118515266333027e-01  4.0909009055588247e-01  4.3032129259315832e-01  4.6517981290019927e-01  5.0272119354531586e-01  5.2813103994943877e-01  5.4114417604261811e-01  5.5999961946544097e-01  6.0544223150603660e-01  6.8062838426915884e-01  7.6716639882434690e-01  7.2445671430215342e-01  5.7977362118296205e-01  6.3635425116757482e-01  5.8219818404146761e-01  5.5272475938567411e-01  5.2905087284712460e-01  5.1513864251260899e-01  5.0743524785500493e-01  4.9939562878344440e-01  4.8153649369033746e-01  4.5165545838346965e-01  4.2061390765418205e-01  4.0038941965415747e-01  3.9311646492213609e-01  3.9389693500493445e-01  3.9716195166047852e-01  3.9940841022965612e-01  3.9961101494258799e-01  3.9872544196901388e-01  3.9757594280499503e-01  3.9521755217398619e-01  3.9101142810274081e-01  3.8653007444357729e-01  3.8334614789451815e-01  3.8140489405843570e-01  3.8027214235068707e-01  3.8010838088479060e-01  3.8119939111292545e-01  3.8334210053044826e-01  3.8597150719674356e-01  3.8862326259063873e-01  3.9121425254451059e-01  3.9400017509554852e-01  3.9711825850380644e-01  3.9991186815155455e-01  4.0095889202118018e-01  3.9932644609927370e-01  3.9563276897948696e-01  3.9188768055972639e-01  3.9163932199219853e-01  3.9963345979007292e-01  4.1849686936620967e-01  4.4500423257230032e-01  4.7174074531598720e-01  4.9260476284128041e-01  5.0582677507292029e-01  5.1689928833735621e-01  5.3527329174453375e-01  5.5887269443195708e-01  5.8463752718777251e-01  6.1693263868983717e-01  6.0085859897927474e-01  4.7076660689230621e-01  4.4370707899940681e-01  4.7585471792126510e-01  4.9602821625397014e-01  4.9238301750951718e-01  4.8460776374020487e-01  4.7994485141965931e-01  4.7835660086249382e-01  4.7432823268353486e-01  4.6204442105016275e-01  4.4033486822519763e-01  4.1579037036377692e-01  3.973038861