<?xml version="1.0"?>
<VTKFile type="UnstructuredGrid"  version="0.1"  >
<UnstructuredGrid>
<Piece  NumberOfPoints="2601" NumberOfCells="5000">
<Points>
<DataArray  type="Float64"  NumberOfComponents="3"  format="ascii">0 0 0  0.03 0 0  0.06 0 0  0.09 0 0  0.12 0 0  0.15 0 0  0.18 0 0  0.21 0 0  0.24 0 0  0.27 0 0  0.3 0 0  0.33 0 0  0.36 0 0  0.39 0 0  0.42 0 0  0.45 0 0  0.48 0 0  0.51 0 0  0.54 0 0  0.57 0 0  0.6 0 0  0.63 0 0  0.66 0 0  0.6899999999999999 0 0  0.72 0 0  0.75 0 0  0.78 0 0  0.8100000000000001 0 0  0.84 0 0  0.87 0 0  0.9 0 0  0.93 0 0  0.96 0 0  0.99 0 0  1.02 0 0  1.05 0 0  1.08 0 0  1.11 0 0  1.14 0 0  1.17 0 0  1.2 0 0  1.23 0 0  1.26 0 0  1.29 0 0  1.32 0 0  1.35 0 0  1.38 0 0  1.41 0 0  1.44 0 0  1.47 0 0  1.5 0 0  0 0.02 0  0.03 0.02 0  0.06 0.02 0  0.09 0.02 0  0.12 0.02 0  0.15 0.02 0  0.18 0.02 0  0.21 0.02 0  0.24 0.02 0  0.27 0.02 0  0.3 0.02 0  0.33 0.02 0  0.36 0.02 0  0.39 0.02 0  0.42 0.02 0  0.45 0.02 0  0.48 0.02 0  0.51 0.02 0  0.54 0.02 0  0.57 0.02 0  0.6 0.02 0  0.63 0.02 0  0.66 0.02 0  0.6899999999999999 0.02 0  0.72 0.02 0  0.75 0.02 0  0.78 0.02 0  0.8100000000000001 0.02 0  0.84 0.02 0  0.87 0.02 0  0.9 0.02 0  0.93 0.02 0  0.96 0.02 0  0.99 0.02 0  1.02 0.02 0  1.05 0.02 0  1.08 0.02 0  1.11 0.02 0  1.14 0.02 0  1.17 0.02 0  1.2 0.02 0  1.23 0.02 0  1.26 0.02 0  1.29 0.02 0  1.32 0.02 0  1.35 0.02 0  1.38 0.02 0  1.41 0.02 0  1.44 0.02 0  1.47 0.02 0  1.5 0.02 0  0 0.04 0  0.03 0.04 0  0.06 0.04 0  0.09 0.04 0  0.12 0.04 0  0.15 0.04 0  0.18 0.04 0  0.21 0.04 0  0.24 0.04 0  0.27 0.04 0  0.3 0.04 0  0.33 0.04 0  0.36 0.04 0  0.39 0.04 0  0.42 0.04 0  0.45 0.04 0  0.48 0.04 0  0.51 0.04 0  0.54 0.04 0  0.57 0.04 0  0.6 0.04 0  0.63 0.04 0  0.66 0.04 0  0.6899999999999999 0.04 0  0.72 0.04 0  0.75 0.04 0  0.78 0.04 0  0.8100000000000001 0.04 0  0.84 0.04 0  0.87 0.04 0  0.9 0.04 0  0.93 0.04 0  0.96 0.04 0  0.99 0.04 0  1.02 0.04 0  1.05 0.04 0  1.08 0.04 0  1.11 0.04 0  1.14 0.04 0  1.17 0.04 0  1.2 0.04 0  1.23 0.04 0  1.26 0.04 0  1.29 0.04 0  1.32 0.04 0  1.35 0.04 0  1.38 0.04 0  1.41 0.04 0  1.44 0.04 0  1.47 0.04 0  1.5 0.04 0  0 0.06 0  0.03 0.06 0  0.06 0.06 0  0.09 0.06 0  0.12 0.06 0  0.15 0.06 0  0.18 0.06 0  0.21 0.06 0  0.24 0.06 0  0.27 0.06 0  0.3 0.06 0  0.33 0.06 0  0.36 0.06 0  0.39 0.06 0  0.42 0.06 0  0.45 0.06 0  0.48 0.06 0  0.51 0.06 0  0.54 0.06 0  0.57 0.06 0  0.6 0.06 0  0.63 0.06 0  0.66 0.06 0  0.6899999999999999 0.06 0  0.72 0.06 0  0.75 0.06 0  0.78 0.06 0  0.8100000000000001 0.06 0  0.84 0.06 0  0.87 0.06 0  0.9 0.06 0  0.93 0.06 0  0.96 0.06 0  0.99 0.06 0  1.02 0.06 0  1.05 0.06 0  1.08 0.06 0  1.11 0.06 0  1.14 0.06 0  1.17 0.06 0  1.2 0.06 0  1.23 0.06 0  1.26 0.06 0  1.29 0.06 0  1.32 0.06 0  1.35 0.06 0  1.38 0.06 0  1.41 0.06 0  1.44 0.06 0  1.47 0.06 0  1.5 0.06 0  0 0.08 0  0.03 0.08 0  0.06 0.08 0  0.09 0.08 0  0.12 0.08 0  0.15 0.08 0  0.18 0.08 0  0.21 0.08 0  0.24 0.08 0  0.27 0.08 0  0.3 0.08 0  0.33 0.08 0  0.36 0.08 0  0.39 0.08 0  0.42 0.08 0  0.45 0.08 0  0.48 0.08 0  0.51 0.08 0  0.54 0.08 0  0.57 0.08 0  0.6 0.08 0  0.63 0.08 0  0.66 0.08 0  0.6899999999999999 0.08 0  0.72 0.08 0  0.75 0.08 0  0.78 0.08 0  0.8100000000000001 0.08 0  0.84 0.08 0  0.87 0.08 0  0.9 0.08 0  0.93 0.08 0  0.96 0.08 0  0.99 0.08 0  1.02 0.08 0  1.05 0.08 0  1.08 0.08 0  1.11 0.08 0  1.14 0.08 0  1.17 0.08 0  1.2 0.08 0  1.23 0.08 0  1.26 0.08 0  1.29 0.08 0  1.32 0.08 0  1.35 0.08 0  1.38 0.08 0  1.41 0.08 0  1.44 0.08 0  1.47 0.08 0  1.5 0.08 0  0 0.1 0  0.03 0.1 0  0.06 0.1 0  0.09 0.1 0  0.12 0.1 0  0.15 0.1 0  0.18 0.1 0  0.21 0.1 0  0.24 0.1 0  0.27 0.1 0  0.3 0.1 0  0.33 0.1 0  0.36 0.1 0  0.39 0.1 0  0.42 0.1 0  0.45 0.1 0  0.48 0.1 0  0.51 0.1 0  0.54 0.1 0  0.57 0.1 0  0.6 0.1 0  0.63 0.1 0  0.66 0.1 0  0.6899999999999999 0.1 0  0.72 0.1 0  0.75 0.1 0  0.78 0.1 0  0.8100000000000001 0.1 0  0.84 0.1 0  0.87 0.1 0  0.9 0.1 0  0.93 0.1 0  0.96 0.1 0  0.99 0.1 0  1.02 0.1 0  1.05 0.1 0  1.08 0.1 0  1.11 0.1 0  1.14 0.1 0  1.17 0.1 0  1.2 0.1 0  1.23 0.1 0  1.26 0.1 0  1.29 0.1 0  1.32 0.1 0  1.35 0.1 0  1.38 0.1 0  1.41 0.1 0  1.44 0.1 0  1.47 0.1 0  1.5 0.1 0  0 0.12 0  0.03 0.12 0  0.06 0.12 0  0.09 0.12 0  0.12 0.12 0  0.15 0.12 0  0.18 0.12 0  0.21 0.12 0  0.24 0.12 0  0.27 0.12 0  0.3 0.12 0  0.33 0.12 0  0.36 0.12 0  0.39 0.12 0  0.42 0.12 0  0.45 0.12 0  0.48 0.12 0  0.51 0.12 0  0.54 0.12 0  0.57 0.12 0  0.6 0.12 0  0.63 0.12 0  0.66 0.12 0  0.6899999999999999 0.12 0  0.72 0.12 0  0.75 0.12 0  0.78 0.12 0  0.8100000000000001 0.12 0  0.84 0.12 0  0.87 0.12 0  0.9 0.12 0  0.93 0.12 0  0.96 0.12 0  0.99 0.12 0  1.02 0.12 0  1.05 0.12 0  1.08 0.12 0  1.11 0.12 0  1.14 0.12 0  1.17 0.12 0  1.2 0.12 0  1.23 0.12 0  1.26 0.12 0  1.29 0.12 0  1.32 0.12 0  1.35 0.12 0  1.38 0.12 0  1.41 0.12 0  1.44 0.12 0  1.47 0.12 0  1.5 0.12 0  0 0.14 0  0.03 0.14 0  0.06 0.14 0  0.09 0.14 0  0.12 0.14 0  0.15 0.14 0  0.18 0.14 0  0.21 0.14 0  0.24 0.14 0  0.27 0.14 0  0.3 0.14 0  0.33 0.14 0  0.36 0.14 0  0.39 0.14 0  0.42 0.14 0  0.45 0.14 0  0.48 0.14 0  0.51 0.14 0  0.54 0.14 0  0.57 0.14 0  0.6 0.14 0  0.63 0.14 0  0.66 0.14 0  0.6899999999999999 0.14 0  0.72 0.14 0  0.75 0.14 0  0.78 0.14 0  0.8100000000000001 0.14 0  0.84 0.14 0  0.87 0.14 0  0.9 0.14 0  0.93 0.14 0  0.96 0.14 0  0.99 0.14 0  1.02 0.14 0  1.05 0.14 0  1.08 0.14 0  1.11 0.14 0  1.14 0.14 0  1.17 0.14 0  1.2 0.14 0  1.23 0.14 0  1.26 0.14 0  1.29 0.14 0  1.32 0.14 0  1.35 0.14 0  1.38 0.14 0  1.41 0.14 0  1.44 0.14 0  1.47 0.14 0  1.5 0.14 0  0 0.16 0  0.03 0.16 0  0.06 0.16 0  0.09 0.16 0  0.12 0.16 0  0.15 0.16 0  0.18 0.16 0  0.21 0.16 0  0.24 0.16 0  0.27 0.16 0  0.3 0.16 0  0.33 0.16 0  0.36 0.16 0  0.39 0.16 0  0.42 0.16 0  0.45 0.16 0  0.48 0.16 0  0.51 0.16 0  0.54 0.16 0  0.57 0.16 0  0.6 0.16 0  0.63 0.16 0  0.66 0.16 0  0.6899999999999999 0.16 0  0.72 0.16 0  0.75 0.16 0  0.78 0.16 0  0.8100000000000001 0.16 0  0.84 0.16 0  0.87 0.16 0  0.9 0.16 0  0.93 0.16 0  0.96 0.16 0  0.99 0.16 0  1.02 0.16 0  1.05 0.16 0  1.08 0.16 0  1.11 0.16 0  1.14 0.16 0  1.17 0.16 0  1.2 0.16 0  1.23 0.16 0  1.26 0.16 0  1.29 0.16 0  1.32 0.16 0  1.35 0.16 0  1.38 0.16 0  1.41 0.16 0  1.44 0.16 0  1.47 0.16 0  1.5 0.16 0  0 0.18 0  0.03 0.18 0  0.06 0.18 0  0.09 0.18 0  0.12 0.18 0  0.15 0.18 0  0.18 0.18 0  0.21 0.18 0  0.24 0.18 0  0.27 0.18 0  0.3 0.18 0  0.33 0.18 0  0.36 0.18 0  0.39 0.18 0  0.42 0.18 0  0.45 0.18 0  0.48 0.18 0  0.51 0.18 0  0.54 0.18 0  0.57 0.18 0  0.6 0.18 0  0.63 0.18 0  0.66 0.18 0  0.6899999999999999 0.18 0  0.72 0.18 0  0.75 0.18 0  0.78 0.18 0  0.8100000000000001 0.18 0  0.84 0.18 0  0.87 0.18 0  0.9 0.18 0  0.93 0.18 0  0.96 0.18 0  0.99 0.18 0  1.02 0.18 0  1.05 0.18 0  1.08 0.18 0  1.11 0.18 0  1.14 0.18 0  1.17 0.18 0  1.2 0.18 0  1.23 0.18 0  1.26 0.18 0  1.29 0.18 0  1.32 0.18 0  1.35 0.18 0  1.38 0.18 0  1.41 0.18 0  1.44 0.18 0  1.47 0.18 0  1.5 0.18 0  0 0.2 0  0.03 0.2 0  0.06 0.2 0  0.09 0.2 0  0.12 0.2 0  0.15 0.2 0  0.18 0.2 0  0.21 0.2 0  0.24 0.2 0  0.27 0.2 0  0.3 0.2 0  0.33 0.2 0  0.36 0.2 0  0.39 0.2 0  0.42 0.2 0  0.45 0.2 0  0.48 0.2 0  0.51 0.2 0  0.54 0.2 0  0.57 0.2 0  0.6 0.2 0  0.63 0.2 0  0.66 0.2 0  0.6899999999999999 0.2 0  0.72 0.2 0  0.75 0.2 0  0.78 0.2 0  0.8100000000000001 0.2 0  0.84 0.2 0  0.87 0.2 0  0.9 0.2 0  0.93 0.2 0  0.96 0.2 0  0.99 0.2 0  1.02 0.2 0  1.05 0.2 0  1.08 0.2 0  1.11 0.2 0  1.14 0.2 0  1.17 0.2 0  1.2 0.2 0  1.23 0.2 0  1.26 0.2 0  1.29 0.2 0  1.32 0.2 0  1.35 0.2 0  1.38 0.2 0  1.41 0.2 0  1.44 0.2 0  1.47 0.2 0  1.5 0.2 0  0 0.22 0  0.03 0.22 0  0.06 0.22 0  0.09 0.22 0  0.12 0.22 0  0.15 0.22 0  0.18 0.22 0  0.21 0.22 0  0.24 0.22 0  0.27 0.22 0  0.3 0.22 0  0.33 0.22 0  0.36 0.22 0  0.39 0.22 0  0.42 0.22 0  0.45 0.22 0  0.48 0.22 0  0.51 0.22 0  0.54 0.22 0  0.57 0.22 0  0.6 0.22 0  0.63 0.22 0  0.66 0.22 0  0.6899999999999999 0.22 0  0.72 0.22 0  0.75 0.22 0  0.78 0.22 0  0.8100000000000001 0.22 0  0.84 0.22 0  0.87 0.22 0  0.9 0.22 0  0.93 0.22 0  0.96 0.22 0  0.99 0.22 0  1.02 0.22 0  1.05 0.22 0  1.08 0.22 0  1.11 0.22 0  1.14 0.22 0  1.17 0.22 0  1.2 0.22 0  1.23 0.22 0  1.26 0.22 0  1.29 0.22 0  1.32 0.22 0  1.35 0.22 0  1.38 0.22 0  1.41 0.22 0  1.44 0.22 0  1.47 0.22 0  1.5 0.22 0  0 0.24 0  0.03 0.24 0  0.06 0.24 0  0.09 0.24 0  0.12 0.24 0  0.15 0.24 0  0.18 0.24 0  0.21 0.24 0  0.24 0.24 0  0.27 0.24 0  0.3 0.24 0  0.33 0.24 0  0.36 0.24 0  0.39 0.24 0  0.42 0.24 0  0.45 0.24 0  0.48 0.24 0  0.51 0.24 0  0.54 0.24 0  0.57 0.24 0  0.6 0.24 0  0.63 0.24 0  0.66 0.24 0  0.6899999999999999 0.24 0  0.72 0.24 0  0.75 0.24 0  0.78 0.24 0  0.8100000000000001 0.24 0  0.84 0.24 0  0.87 0.24 0  0.9 0.24 0  0.93 0.24 0  0.96 0.24 0  0.99 0.24 0  1.02 0.24 0  1.05 0.24 0  1.08 0.24 0  1.11 0.24 0  1.14 0.24 0  1.17 0.24 0  1.2 0.24 0  1.23 0.24 0  1.26 0.24 0  1.29 0.24 0  1.32 0.24 0  1.35 0.24 0  1.38 0.24 0  1.41 0.24 0  1.44 0.24 0  1.47 0.24 0  1.5 0.24 0  0 0.26 0  0.03 0.26 0  0.06 0.26 0  0.09 0.26 0  0.12 0.26 0  0.15 0.26 0  0.18 0.26 0  0.21 0.26 0  0.24 0.26 0  0.27 0.26 0  0.3 0.26 0  0.33 0.26 0  0.36 0.26 0  0.39 0.26 0  0.42 0.26 0  0.45 0.26 0  0.48 0.26 0  0.51 0.26 0  0.54 0.26 0  0.57 0.26 0  0.6 0.26 0  0.63 0.26 0  0.66 0.26 0  0.6899999999999999 0.26 0  0.72 0.26 0  0.75 0.26 0  0.78 0.26 0  0.8100000000000001 0.26 0  0.84 0.26 0  0.87 0.26 0  0.9 0.26 0  0.93 0.26 0  0.96 0.26 0  0.99 0.26 0  1.02 0.26 0  1.05 0.26 0  1.08 0.26 0  1.11 0.26 0  1.14 0.26 0  1.17 0.26 0  1.2 0.26 0  1.23 0.26 0  1.26 0.26 0  1.29 0.26 0  1.32 0.26 0  1.35 0.26 0  1.38 0.26 0  1.41 0.26 0  1.44 0.26 0  1.47 0.26 0  1.5 0.26 0  0 0.28 0  0.03 0.28 0  0.06 0.28 0  0.09 0.28 0  0.12 0.28 0  0.15 0.28 0  0.18 0.28 0  0.21 0.28 0  0.24 0.28 0  0.27 0.28 0  0.3 0.28 0  0.33 0.28 0  0.36 0.28 0  0.39 0.28 0  0.42 0.28 0  0.45 0.28 0  0.48 0.28 0  0.51 0.28 0  0.54 0.28 0  0.57 0.28 0  0.6 0.28 0  0.63 0.28 0  0.66 0.28 0  0.6899999999999999 0.28 0  0.72 0.28 0  0.75 0.28 0  0.78 0.28 0  0.8100000000000001 0.28 0  0.84 0.28 0  0.87 0.28 0  0.9 0.28 0  0.93 0.28 0  0.96 0.28 0  0.99 0.28 0  1.02 0.28
[...]
<PointData  Scalars="ControlVisualisation"> 
<DataArray  type="Float64"  Name="ControlVisualisation"  format="ascii">2.5131411026441347e-04  1.6789129289894526e-04  1.6851334656203053e-04  1.6979155245702867e-04  1.7175873291205143e-04  1.7420333767400527e-04  1.7678783632462099e-04  1.7919417096984311e-04  1.8120727372022724e-04  1.8273052888579698e-04  1.8375681443463663e-04  1.8433220368158676e-04  1.8453059743475531e-04  1.8443707425781701e-04  1.8413577186623779e-04  1.8370195353945240e-04  1.8319828964328896e-04  1.8267415504597640e-04  1.8216650134539477e-04  1.8170145222882935e-04  1.8129628119984917e-04  1.8096156297418007e-04  1.8070324244493218e-04  1.8052437038215750e-04  1.8042636562683081e-04  1.8040980143827100e-04  1.8047479482724248e-04  1.8062107443015960e-04  1.8084773895719436e-04  1.8115264427621665e-04  1.8153132635774169e-04  1.8197541984898944e-04  1.8247066804607184e-04  1.8299475775122108e-04  1.8351525380744116e-04  1.8398784084581728e-04  1.8435513554653602e-04  1.8454673634937102e-04  1.8448173836985249e-04  1.8407493999239759e-04  1.8324639904103123e-04  1.8193549477753916e-04  1.8012301526397750e-04  1.7786430295715526e-04  1.7532525418244505e-04  1.7278213010197283e-04  1.7057069359123237e-04  1.6898126283384062e-04  1.6809977608851152e-04  1.6775342743972124e-04  5.0102870395653438e-04  1.6779481585121289e-04  8.4105695671174890e-05  8.4711465581684489e-05  8.6058042197510970e-05  8.8272731228819897e-05  9.1213892564928742e-05  9.4538614326289148e-05  9.7839256039177662e-05  1.0076653485821493e-04  1.0310053380312773e-04  1.0475396101746715e-04  1.0574028363561333e-04  1.0614007001988457e-04  1.0607142305985915e-04  1.0566361515646249e-04  1.0503747897332445e-04  1.0429489600826455e-04  1.0351563523118407e-04  1.0275833467487998e-04  1.0206335120514254e-04  1.0145638623916307e-04  1.0095232251689450e-04  1.0055880501392609e-04  1.0027917974901791e-04  1.0011460191255181e-04  1.0006534674070136e-04  1.0013148426802793e-04  1.0031307375011750e-04  1.0060992901738398e-04  1.0102087073211971e-04  1.0154229053814206e-04  1.0216587393403680e-04  1.0287549386229636e-04  1.0364353654470586e-04  1.0442708817943326e-04  1.0516439320107409e-04  1.0577218204744987e-04  1.0614520249539966e-04  1.0616082675311470e-04  1.0569109275078885e-04  1.0462200991725216e-04  1.0287886118341752e-04  1.0045852616636897e-04  9.7463796441785784e-05  9.4136516400955452e-05  9.0838434776995534e-05  8.7964995645240584e-05  8.5845060950401683e-05  8.4603132898057904e-05  8.4070213824532909e-05  1.6773366113314277e-04  1.6798181888172907e-04  8.4296550126824256e-05  8.5082883688606797e-05  8.6799217149144850e-05  8.9563995711912996e-05  9.3179989380737870e-05  9.7248019758770196e-05  1.0128408176874674e-04  1.0486233575972170e-04  1.0771408608600603e-04  1.0972622466318091e-04  1.1090377419128463e-04  1.1134002567462851e-04  1.1118396995245540e-04  1.1060302914930055e-04  1.0975384652298709e-04  1.0876745641143454e-04  1.0774541949703991e-04  1.0676141866098876e-04  1.0586509805743349e-04  1.0508692915850052e-04  1.0444346607513252e-04  1.0394228424895307e-04  1.0358596773017864e-04  1.0337486255642112e-04  1.0330869859893927e-04  1.0338738118198709e-04  1.0361122637132739e-04  1.0398073166838975e-04  1.0449574522650534e-04  1.0515372997544946e-04  1.0594682237169852e-04  1.0685763536716118e-04  1.0785423916255887e-04  1.0888498464263474e-04  1.0987370829891223e-04  1.1071594553232633e-04  1.1127750063005430e-04  1.1140023024891572e-04  1.1091815001665914e-04  1.0968773078130160e-04  1.0761808587895548e-04  1.0470837018331942e-04  1.0107425691269725e-04  9.7004888215921367e-05  9.2950523321047828e-05  8.9364792943631431e-05  8.6632633694792990e-05  8.4975756225908505e-05  8.4253039447657659e-05  1.6786874183956588e-04  1.6816382093634032e-04  8.4570954314257715e-05  8.5670594153733400e-05  8.7821852177427350e-05  9.0973621619214271e-05  9.4837933713515251e-05  9.9034410958531691e-05  1.0306427124559115e-04  1.0651989230026925e-04  1.0919949777488001e-04  1.1103133270852605e-04  1.1202773499705232e-04  1.1228528620997059e-04  1.1196162185120412e-04  1.1123183589062933e-04  1.1025541808913100e-04  1.0916300812698944e-04  1.0805486903011724e-04  1.0700322035794781e-04  1.0605577976663546e-04  1.0524042629435603e-04  1.0457077815510727e-04  1.0405171050842343e-04  1.0368376482022864e-04  1.0346600293891718e-04  1.0339750233121306e-04  1.0347798233341685e-04  1.0370798428467490e-04  1.0408874343889248e-04  1.0462154644881918e-04  1.0530610864458687e-04  1.0613747114636415e-04  1.0710127966886747e-04  1.0816818820858329e-04  1.0928844887793813e-04  1.1038763998353215e-04  1.1136290272246550e-04  1.1207950735577092e-04  1.1237442951565371e-04  1.1207450590189744e-04  1.1103880269344675e-04  1.0916443960064920e-04  1.0643253444564365e-04  1.0291065211095237e-04  9.8816646672943110e-05  9.4626560729128506e-05  9.0773654268567282e-05  8.7601395071537893e-05  8.5472405649115072e-05  8.4471220252660807e-05  1.6805866241208562e-04  1.6813037632132044e-04  8.4911498156835566e-05  8.6855242340428968e-05  8.9950214022951330e-05  9.3611066114300499e-05  9.7609758159654137e-05  1.0182330190910177e-04  1.0564094646971457e-04  1.0872611122290502e-04  1.1103471882668641e-04  1.1253573401685455e-04  1.1322423569049898e-04  1.1319395419435425e-04  1.1261611376682552e-04  1.1167455441773026e-04  1.1052736217052865e-04  1.0929961289855512e-04  1.0808663072606947e-04  1.0695689224688930e-04  1.0595429344633923e-04  1.0510207537028214e-04  1.0440887295903238e-04  1.0387520842878748e-04  1.0349853111885487e-04  1.0327610385931059e-04  1.0320616286125622e-04  1.0328819126172033e-04  1.0352298106766121e-04  1.0391269777127898e-04  1.0446062607391661e-04  1.0516986585402578e-04  1.0604009793193544e-04  1.0706202266859256e-04  1.0821064927142526e-04  1.0943987694697727e-04  1.1067969845950470e-04  1.1183200982902705e-04  1.1276629067586237e-04  1.1331718388503635e-04  1.1330853093342856e-04  1.1259354320490759e-04  1.1105879626060549e-04  1.0870776741440946e-04  1.0560453050834453e-04  1.0165774795993596e-04  9.7453614617087764e-05  9.3511326605233831e-05  8.9740940258076088e-05  8.6537504502645675e-05  8.4655929505848615e-05  1.6812938113853319e-04  1.6817547091964292e-04  8.5832632820658899e-05  9.1669188142660596e-05  9.9765012001276442e-05  1.0371680749408800e-04  1.0528313957368097e-04  1.0740034635295234e-04  1.0974204069758542e-04  1.1184000524470070e-04  1.1351543255628063e-04  1.1455345342369246e-04  1.1481317692561945e-04  1.1437754005922170e-04  1.1344820385557362e-04  1.1222201790537328e-04  1.1084956436803506e-04  1.0944446678497073e-04  1.0809460121450991e-04  1.0686400347291083e-04  1.0579181748213396e-04  1.0489468304208702e-04  1.0417384174985544e-04  1.0362351018408373e-04  1.0323693997775432e-04  1.0300919205494427e-04  1.0293760653215257e-04  1.0302142618236312e-04  1.0326164272221029e-04  1.0366140435390075e-04  1.0422646772574742e-04  1.0496456801233009e-04  1.0588217361982793e-04  1.0697756705219881e-04  1.0823167057607737e-04  1.0960305098423893e-04  1.1102599969845945e-04  1.1241105962797876e-04  1.1364501230949381e-04  1.1455190658147160e-04  1.1493849270818221e-04  1.1462475496221023e-04  1.1374314076581445e-04  1.1223982788154612e-04  1.1071168795441096e-04  1.0875464292316585e-04  1.0723385155043857e-04  1.0505916579144184e-04  9.7427751940956821e-05  8.9262187021712285e-05  8.4946478715814205e-05  1.6798644242919806e-04  1.7416261125027964e-04  9.2784700729257874e-05  1.2711783825994447e-04  2.2290822101738765e-04  2.8939051847328481e-04  2.0327155982286814e-04  1.4649508230081033e-04  1.2347882865303429e-04  1.1722680229356545e-04  1.1692204005270488e-04  1.1719919277714210e-04  1.1686070384615636e-04  1.1586567888645095e-04  1.1446992552082120e-04  1.1288316374999006e-04  1.1123096540590033e-04  1.0960561383767845e-04  1.0808537393652818e-04  1.0673060664814180e-04  1.0557545269679939e-04  1.0462735642783003e-04  1.0387671214674596e-04  1.0330888917133522e-04  1.0291181775823655e-04  1.0267823126338345e-04  1.0260479947940017e-04  1.0269061507623984e-04  1.0293666890070961e-04  1.0334684468389983e-04  1.0392958252158895e-04  1.0469857407351254e-04  1.0566999612721613e-04  1.0685360061518422e-04  1.0823776430195662e-04  1.0978541409898869e-04  1.1143281450571437e-04  1.1311474345491580e-04  1.1473820700368160e-04  1.1609815693959794e-04  1.1704783159863456e-04  1.1743543405425638e-04  1.1819971842822504e-04  1.2009390627712541e-04  1.2945655463509945e-04  1.4932039564869169e-04  1.9463867264831559e-04  2.8456391347966696e-04  2.3429288666569737e-04  1.3471930717420767e-04  9.1172815107106689e-05  1.6868727928020123e-04  1.8935831102076336e-04  2.0557209196276512e-04  2.9957617994139589e-02  5.7572684806697152e-02  5.3706253840467448e-02  3.3966633166487667e-02  1.0802392583744892e-02  3.9639729043616448e-04  1.5496410656404183e-04  1.2556313735607953e-04  1.2109466538950294e-04  1.1950996232036319e-04  1.1767260355888945e-04  1.1566792069428016e-04  1.1364700998491729e-04  1.1166373972058247e-04  1.0977464752152388e-04  1.0804846938087242e-04  1.0654569557414867e-04  1.0529660664373563e-04  1.0429540096451334e-04  1.0351617929297992e-04  1.0293207019744864e-04  1.0252471676312935e-04  1.0228495668225132e-04  1.0220950525795327e-04  1.0229755994588100e-04  1.0254966087709381e-04  1.0296963160919605e-04  1.0356831498155587e-04  1.0436656984335360e-04  1.0539420421980419e-04  1.0667885052194433e-04  1.0821883139141898e-04  1.0997880457242073e-04  1.1189596350775179e-04  1.1393237735004388e-04  1.1600442335768757e-04  1.1811087632811536e-04  1.2008203878453329e-04  1.2241971224656627e-04  1.3241642937070677e-04  1.6045941154819776e-04  3.2173773509559426e-04  8.2653584697839379e-03  2.9761245148022284e-02  5.0691235557177965e-02  5.7989761733011347e-02  4.1688057967981966e-02  2.1194037577970402e-04  1.8820133142031283e-04  4.1310701234265350e-04  8.9871736086709883e-02  2.1032088724820949e-01  2.1475072273438073e-01  1.8094460827847150e-01  1.3313048600969854e-01  8.2702042761576125e-02  3.8570388622045988e-02  6.1394234794015148e-03  2.1683098407815498e-04  1.3641831950806068e-04  1.2382685248388752e-04  1.1989975273890646e-04  1.1702137723818789e-04  1.1450393205928676e-04  1.1214184147894807e-04  1.0994342636715019e-04  1.0797062218732694e-04  1.0629365509261707e-04  1.0494330404338894e-04  1.0389289762935352e-04  1.0309101562194926e-04  1.0249415917447587e-04  1.0207732134002266e-04  1.0183089515059860e-04  1.0175315123721866e-04  1.0184393984550841e-04  1.0210248286235631e-04  1.0253078820901445e-04  1.0314109554101043e-04  1.0396174383653329e-04  1.0504126180795096e-04  1.0643742877569112e-04  1.0816670328035476e-04  1.1017608959477950e-04  1.1241366342292186e-04  1.1481263264732783e-04  1.1757446757440276e-04  1.2119536877596417e-04  1.2661373423728076e-04  1.4291112243577995e-04  2.1611765819193546e-04  3.2351238561705627e-03  3.1896790976446383e-02  7.6550649764329584e-02  1.2882117278506822e-01  1.7609411037814854e-01  2.0897565640663321e-01  2.0828935991285716e-01  1.1425758057931888e-01  3.0534580125733175e-04  4.0294157456372032e-01  4.6463307133313747e-01  4.9587243104493833e-01  4.2347991049515332e-01  3.5532521209349138e-01  2.7555101385010999e-01  1.9448164437635401e-01  1.2032436449393162e-01  6.0590441797902246e-02  1.7648933516196591e-02  3.8351492105311892e-04  1.4976334036213723e-04  1.2432079928368419e-04  1.1872485934790705e-04  1.1549117496660584e-04  1.1267138915202050e-04  1.1011005284926420e-04  1.0783758663133358e-04  1.0595301726627579e-04  1.0450029291498574e-04  1.0341432240787958e-04  1.0260190263822635e-04  1.0199813357524979e-04  1.0157247218597063e-04  1.0131800992001576e-04  1.0123735413312581e-04  1.0133203946148344e-04  1.0159842390446077e-04  1.0203341976563637e-04  1.0264854435023821e-04  1.0347772855692048e-04  1.0459469594255735e-04  1.0610749284051531e-04  1.0807694052483156e-04  1.1036369435045197e-04  1.1305727581795840e-04  1.1586073750901755e-04  1.2016204744238941e-04  1.3032027452024430e-04  1.5608663210949110e-04  3.1553013333261633e-04  1.2833219147327339e-02  5.4153793304097302e-02  1.1692627707412229e-01  1.9069956366141053e-01  2.7129271376800013e-01  3.5142225754865963e-01  4.1795764326102902e-01  4.4889350881945628e-01  4.7048643113303051e-01  3.5710001303657762e-01  9.9898008586463538e-01  9.8379165828007520e-01  7.8762712963756198e-01  6.6324879146486893e-01  5.5720924256825000e-01  4.4365777027802150e-01  3.3617730452845301e-01  2.3576961211473882e-01  1.4760686607756582e-01  7.7486353153534637e-02  2.8419416257789178e-02  1.3874791136298885e-03  1.6736108465974198e-04  1.2516321312111111e-04  1.1725696409203929e-04  1.1336323233596532e-04  1.1031549001390287e-04  1.0764617281775480e-04  1.0549619185522415e-04  1.0395195726774146e-04  1.0285914157469908e-04  1.0205507000554093e-04  1.0145155385057242e-04  1.0101604372298340e-04  1.0075005819328532e-04  1.0066524689446154e-04  1.0076619493093273e-04  1.0104451990379238e-04  1.0148587823338233e-04  1.0209700517626173e-04  1.0291518889985999e-04  1.0403926276912198e-04  1.0565816295787371e-04  1.0799300436279805e-04  1.1065714913664377e-04  1.1420247463945724e-04  1.1844476575186809e-04  1.3286064883738071e-04  1.7586161373114688e-04  6.4993229029905323e-04  2.2746691670823493e-02  7.2367445119290774e-02  1.4488402574726850e-01  2.3208339940325576e-01  3.3236790614113421e-01  4.4203085241754586e-01  5.4432281574728114e-01  6.5578187243874442e-01  8.0628016367520761e-01  9.9295031824926661e-01  9.9675608311061237e-01  9.9979327330681478e-01  9.9981986563270231e-01  9.9936720104628085e-01  9.0613593110039714e-01  7.4464553209221762e-01  6.1569909777499754e-01  4.8915757010473243e-01  3.6977132786332456e-01  2.6085406801811734e-01  1.6681866373453394e-01  9.2080355632876518e-02  3.9481435336632453e-02  6.1300176817241639e-03  2.1556082776800567e-04  1.3224755548648282e-04  1.1630502867336091e-04  1.1119971751005547e-04  1.0760566021727676e-04  1.0498293058563872e-04  1.0335125864578547e-04  1.0228105154491027e-04  1.0149755577414316e-04  1.0089523385539976e-04  1.0044162193771418e-04  1.0015534106743354e-04  1.0006370762013320e-04  1.0017585961635009e-04  1.0048009681709319e-04  1.0093654518158072e-04  1.0154539348240557e-04  1.0235737118183730e-04  1.0345780593285288e-04  1.0521030642247964e-04  1.0830900379603149e-04  1.1211823735526305e-04  1.2053612389059220e-04  1.3821511600832943e-04  2.1063738792942362e-04  3.5549686532347757e-03  3.3746958808494480e-02  8.8365288001029427e-02  1.6437615704936068e-01  2.5801664179363937e-01  3.6713734958722644e-01  4.8868135685206848e-01  6.0997582499250580e-01  7.4161381155936490e-01  9.3925200699080558e-01  9.9957696960930009e-01  9.9983928704813907e-01  9.9971835510397067e-01  9.9986317115739731e-01  9.9990889169947039e-01  9.9981784138919350e-01  9.9930717817080095e-01  9.1128682162572272e-01  7.6777285190475653e-01  6.3675359433760170e-01  5.0876613530061754e-01  3.8752937126872294e-01  2.7751593269300845e-01  1.8314042641304398e-01  1.0750441275172661e-01  5.2915235827731777e-02  1.6890756579877781e-02  5.3149471247589000e-04  1.6940625734619352e-04  1.2593244515724233e-04  1.1228558663820020e-04  1.0667370620337307e-04  1.0410472249394166e-04  1.0263384913078683e-04  1.0162259869472239e-04  1.0088577104620347e-04  1.0033299834597753e-04  9.9984719573835708e-05  9.9878184964564344e-05  1.0002526596967575e-04  1.0042451274851941e-04  1.0100462308777824e-04  1.0180448364108514e-04  1.0298427741003050e-04  1.0465542277011666e-04  1.0790013673563233e-04  1.1623030901469418e-04  1.3166665183611420e-04  1.6926659958789209e-04  4.1626432204815215e-04  1.2232496953538468e-02  4.8043246774999195e-02  1.0530619106643418e-01  1.8081185943879796e-01  2.7527636111911175e-01  3.8595778348894061e-01  5.0878137377521115e-01  6.3652137015821564e-01  7.6515866210828409e-01  9.3856431438608556e-01  9.9945737676707491e-01  9.9982314534953676e-01  9.9990874607471636e-01  9.9985239150634919e-01  9.9985519089815933e-01  9.9991574659659754e-01  9.9986055496858428e-01  9.9968379663953466e-01  9.9785990149207904e-01  8.8406842931231289e-01  7.6350381190277483e-01  6.3904193863349057e-01  5.1593417875718861e-01  3.9876690656245395e-01  2.9273627950503311e-01  2.0191488110432787e-01  1.2860800662993702e-01  7.4142728685368475e-02  3.7014698049073404e-02  1.2432149528358825e-02  7.5418568932480491e-04  2.1986083418619102e-04  1.5463223319673366e-04  1.3436537968125286e-04  1.2419060550604240e-04  1.1841773720837307e-04  1.1500009477179598e-04  1.1286967931998430e-04  1.1176871515026058e-04  1.1150124286382080e-04  1.1200626520370660e-04  1.1338329569449934e-04  1.1555258778033286e-04  1.1904006919871262e-04  1.2505487216329914e-04  1.3428117668381174e-04  1.5370935193712135e-04  2.1375212174794524e-04  6.2849598815014501e-04  9.7729262916956359e-03  3.2421495239100387e-02  7.1088529683345933e-02  1.2709435765858471e-01  2.0005679724317157e-01  2.9103977264513858e-01  3.9810532431381390e-01  5.1635191213079068e-01  6.4094933871038751e-01  7.6298377138598006e-01  8.9765400895812419e-01  9.9850979577086396e-01  9.9968137281084524e-01  9.9985560258372785e-01  9.9991362753417345e-01  9.9986386912930658e-01  9.9973674595308681e-01  9.9987387755042345e-01  9.9981667368317229e-01  9.9967142906227457e-01  9.9904080236342441e-01  9.6022005964699930e-01  8.5602840096301569e-01  7.4914171468516610e-01  6.3494121497988043e-01  5.2037893127269319e-01  4.1147610582038646e-01  3.1341807127503662e-01  2.2971986993074150e-01  1.6207273043963424e-01  1.1027776130509986e-01  7.3087317992471063e-02  4.7597471576198896e-02  2.9655485152381169e-02  1.7230510121249269e-02  9.9338495905153291e-03  5.5511398663150345e-03  2.8129873506905659e-03  1.6433730610893695e-03  1.1163422086686394e-03  8.9828711364466529e-04  8.3922942800217150e-04  8.8846120775902017e-04  1.0887900495150818e-03  1.5808724059706678e-03  2.6262321369857821e-03  5.1781765642856421e-03  9.2756123916914283e-03  1.5811726872556539e-02  2.6620931858171173e-02  4.4247429969108111e-02  7.1130507574438964e-02  1.0934872049828889e-01  1.6108073195048001e-01  2.2844581581438239e-01  3.1254400922277792e-01  4.1150808987929161e-01  5.2139821646663875e-01  6.3701636374275017e-01  7.5195694317350958e-01  8.6041628455948171e-01  9.6831993257808990e-01  9.9899229632512898e-01  9.9963734877191845e-01  9.9980085670763730e-01  9.9986569071942744e-01  9.9980130446634241e-01  9.9691574759579782e-01  9.9943950888018840e-01  9.9940592055499200e-01  9.9918354500664175e-01  9.9816697039173541e-01  9.7712598638740278e-01  9.0918788120892458e-01  8.3007240885863720e-01  7.3489893201413370e-01  6.3266845848570430e-01  5.3003144580658568e-01  4.3335487588005595e-01  3.4735069556975856e-01  2.7472544145860656e-01  2.1630442759224355e-01  1.7123010340599712e-01  1.3751824866015136e-01  1.1322417157621553e-01  9.6393100859140574e-02  8.4666629539739136e-02  7.6377899733847024e-02  7.0758066647832157e-02  6.6995899219370561e-02  6.4537076920060249e-02  6.3103031097542173e-02  6.2598341115816067e-02  6.2944705204789370e-02  6.4199511035609474e-02  6.6562561574230822e-02  7.0291070920262155e-02  7.5840445919211921e-02  8.4026939211142210e-02  9.5906887219453146e-02  1.1317102749255933e-01  1.3765038686157005e-01  1.7095377492526082e-01  2.1565087330148064e-01  2.7429979567730323e-01  3.4742302247649653e-01  4.3412232295456887e-01  5.3156165888065010e-01  6.3509453918024295e-01  7.3825633975731442e-01  8.3407329416094511e-01  9.1664819383012242e-01  9.7733527139365539e-01  9.9769975154787027e-01  9.9906952811474992e-01  9.9940494383148393e-01  9.9951348114268568e-01  9.9921297930951058e-01  3.3926719031269875e-01  6.4704848135513449e-01  8.0533098171485340e-01  9.0062609566515350e-01  9.4033509087446998e-01  9.4412348832150073e-01  9.2232630229314094e-01  8.7640939904066550e-01  8.0848593409408764e-01  7.2712907490256173e-01  6.3952304230035106e-01  5.5287480132404720e-01  4.729545633