<?xml version="1.0"?>
<VTKFile type="UnstructuredGrid"  version="0.1"  >
<UnstructuredGrid>
<Piece  NumberOfPoints="2601" NumberOfCells="5000">
<Points>
<DataArray  type="Float64"  NumberOfComponents="3"  format="ascii">0 0 0  0.03 0 0  0.06 0 0  0.09 0 0  0.12 0 0  0.15 0 0  0.18 0 0  0.21 0 0  0.24 0 0  0.27 0 0  0.3 0 0  0.33 0 0  0.36 0 0  0.39 0 0  0.42 0 0  0.45 0 0  0.48 0 0  0.51 0 0  0.54 0 0  0.57 0 0  0.6 0 0  0.63 0 0  0.66 0 0  0.6899999999999999 0 0  0.72 0 0  0.75 0 0  0.78 0 0  0.8100000000000001 0 0  0.84 0 0  0.87 0 0  0.9 0 0  0.93 0 0  0.96 0 0  0.99 0 0  1.02 0 0  1.05 0 0  1.08 0 0  1.11 0 0  1.14 0 0  1.17 0 0  1.2 0 0  1.23 0 0  1.26 0 0  1.29 0 0  1.32 0 0  1.35 0 0  1.38 0 0  1.41 0 0  1.44 0 0  1.47 0 0  1.5 0 0  0 0.02 0  0.03 0.02 0  0.06 0.02 0  0.09 0.02 0  0.12 0.02 0  0.15 0.02 0  0.18 0.02 0  0.21 0.02 0  0.24 0.02 0  0.27 0.02 0  0.3 0.02 0  0.33 0.02 0  0.36 0.02 0  0.39 0.02 0  0.42 0.02 0  0.45 0.02 0  0.48 0.02 0  0.51 0.02 0  0.54 0.02 0  0.57 0.02 0  0.6 0.02 0  0.63 0.02 0  0.66 0.02 0  0.6899999999999999 0.02 0  0.72 0.02 0  0.75 0.02 0  0.78 0.02 0  0.8100000000000001 0.02 0  0.84 0.02 0  0.87 0.02 0  0.9 0.02 0  0.93 0.02 0  0.96 0.02 0  0.99 0.02 0  1.02 0.02 0  1.05 0.02 0  1.08 0.02 0  1.11 0.02 0  1.14 0.02 0  1.17 0.02 0  1.2 0.02 0  1.23 0.02 0  1.26 0.02 0  1.29 0.02 0  1.32 0.02 0  1.35 0.02 0  1.38 0.02 0  1.41 0.02 0  1.44 0.02 0  1.47 0.02 0  1.5 0.02 0  0 0.04 0  0.03 0.04 0  0.06 0.04 0  0.09 0.04 0  0.12 0.04 0  0.15 0.04 0  0.18 0.04 0  0.21 0.04 0  0.24 0.04 0  0.27 0.04 0  0.3 0.04 0  0.33 0.04 0  0.36 0.04 0  0.39 0.04 0  0.42 0.04 0  0.45 0.04 0  0.48 0.04 0  0.51 0.04 0  0.54 0.04 0  0.57 0.04 0  0.6 0.04 0  0.63 0.04 0  0.66 0.04 0  0.6899999999999999 0.04 0  0.72 0.04 0  0.75 0.04 0  0.78 0.04 0  0.8100000000000001 0.04 0  0.84 0.04 0  0.87 0.04 0  0.9 0.04 0  0.93 0.04 0  0.96 0.04 0  0.99 0.04 0  1.02 0.04 0  1.05 0.04 0  1.08 0.04 0  1.11 0.04 0  1.14 0.04 0  1.17 0.04 0  1.2 0.04 0  1.23 0.04 0  1.26 0.04 0  1.29 0.04 0  1.32 0.04 0  1.35 0.04 0  1.38 0.04 0  1.41 0.04 0  1.44 0.04 0  1.47 0.04 0  1.5 0.04 0  0 0.06 0  0.03 0.06 0  0.06 0.06 0  0.09 0.06 0  0.12 0.06 0  0.15 0.06 0  0.18 0.06 0  0.21 0.06 0  0.24 0.06 0  0.27 0.06 0  0.3 0.06 0  0.33 0.06 0  0.36 0.06 0  0.39 0.06 0  0.42 0.06 0  0.45 0.06 0  0.48 0.06 0  0.51 0.06 0  0.54 0.06 0  0.57 0.06 0  0.6 0.06 0  0.63 0.06 0  0.66 0.06 0  0.6899999999999999 0.06 0  0.72 0.06 0  0.75 0.06 0  0.78 0.06 0  0.8100000000000001 0.06 0  0.84 0.06 0  0.87 0.06 0  0.9 0.06 0  0.93 0.06 0  0.96 0.06 0  0.99 0.06 0  1.02 0.06 0  1.05 0.06 0  1.08 0.06 0  1.11 0.06 0  1.14 0.06 0  1.17 0.06 0  1.2 0.06 0  1.23 0.06 0  1.26 0.06 0  1.29 0.06 0  1.32 0.06 0  1.35 0.06 0  1.38 0.06 0  1.41 0.06 0  1.44 0.06 0  1.47 0.06 0  1.5 0.06 0  0 0.08 0  0.03 0.08 0  0.06 0.08 0  0.09 0.08 0  0.12 0.08 0  0.15 0.08 0  0.18 0.08 0  0.21 0.08 0  0.24 0.08 0  0.27 0.08 0  0.3 0.08 0  0.33 0.08 0  0.36 0.08 0  0.39 0.08 0  0.42 0.08 0  0.45 0.08 0  0.48 0.08 0  0.51 0.08 0  0.54 0.08 0  0.57 0.08 0  0.6 0.08 0  0.63 0.08 0  0.66 0.08 0  0.6899999999999999 0.08 0  0.72 0.08 0  0.75 0.08 0  0.78 0.08 0  0.8100000000000001 0.08 0  0.84 0.08 0  0.87 0.08 0  0.9 0.08 0  0.93 0.08 0  0.96 0.08 0  0.99 0.08 0  1.02 0.08 0  1.05 0.08 0  1.08 0.08 0  1.11 0.08 0  1.14 0.08 0  1.17 0.08 0  1.2 0.08 0  1.23 0.08 0  1.26 0.08 0  1.29 0.08 0  1.32 0.08 0  1.35 0.08 0  1.38 0.08 0  1.41 0.08 0  1.44 0.08 0  1.47 0.08 0  1.5 0.08 0  0 0.1 0  0.03 0.1 0  0.06 0.1 0  0.09 0.1 0  0.12 0.1 0  0.15 0.1 0  0.18 0.1 0  0.21 0.1 0  0.24 0.1 0  0.27 0.1 0  0.3 0.1 0  0.33 0.1 0  0.36 0.1 0  0.39 0.1 0  0.42 0.1 0  0.45 0.1 0  0.48 0.1 0  0.51 0.1 0  0.54 0.1 0  0.57 0.1 0  0.6 0.1 0  0.63 0.1 0  0.66 0.1 0  0.6899999999999999 0.1 0  0.72 0.1 0  0.75 0.1 0  0.78 0.1 0  0.8100000000000001 0.1 0  0.84 0.1 0  0.87 0.1 0  0.9 0.1 0  0.93 0.1 0  0.96 0.1 0  0.99 0.1 0  1.02 0.1 0  1.05 0.1 0  1.08 0.1 0  1.11 0.1 0  1.14 0.1 0  1.17 0.1 0  1.2 0.1 0  1.23 0.1 0  1.26 0.1 0  1.29 0.1 0  1.32 0.1 0  1.35 0.1 0  1.38 0.1 0  1.41 0.1 0  1.44 0.1 0  1.47 0.1 0  1.5 0.1 0  0 0.12 0  0.03 0.12 0  0.06 0.12 0  0.09 0.12 0  0.12 0.12 0  0.15 0.12 0  0.18 0.12 0  0.21 0.12 0  0.24 0.12 0  0.27 0.12 0  0.3 0.12 0  0.33 0.12 0  0.36 0.12 0  0.39 0.12 0  0.42 0.12 0  0.45 0.12 0  0.48 0.12 0  0.51 0.12 0  0.54 0.12 0  0.57 0.12 0  0.6 0.12 0  0.63 0.12 0  0.66 0.12 0  0.6899999999999999 0.12 0  0.72 0.12 0  0.75 0.12 0  0.78 0.12 0  0.8100000000000001 0.12 0  0.84 0.12 0  0.87 0.12 0  0.9 0.12 0  0.93 0.12 0  0.96 0.12 0  0.99 0.12 0  1.02 0.12 0  1.05 0.12 0  1.08 0.12 0  1.11 0.12 0  1.14 0.12 0  1.17 0.12 0  1.2 0.12 0  1.23 0.12 0  1.26 0.12 0  1.29 0.12 0  1.32 0.12 0  1.35 0.12 0  1.38 0.12 0  1.41 0.12 0  1.44 0.12 0  1.47 0.12 0  1.5 0.12 0  0 0.14 0  0.03 0.14 0  0.06 0.14 0  0.09 0.14 0  0.12 0.14 0  0.15 0.14 0  0.18 0.14 0  0.21 0.14 0  0.24 0.14 0  0.27 0.14 0  0.3 0.14 0  0.33 0.14 0  0.36 0.14 0  0.39 0.14 0  0.42 0.14 0  0.45 0.14 0  0.48 0.14 0  0.51 0.14 0  0.54 0.14 0  0.57 0.14 0  0.6 0.14 0  0.63 0.14 0  0.66 0.14 0  0.6899999999999999 0.14 0  0.72 0.14 0  0.75 0.14 0  0.78 0.14 0  0.8100000000000001 0.14 0  0.84 0.14 0  0.87 0.14 0  0.9 0.14 0  0.93 0.14 0  0.96 0.14 0  0.99 0.14 0  1.02 0.14 0  1.05 0.14 0  1.08 0.14 0  1.11 0.14 0  1.14 0.14 0  1.17 0.14 0  1.2 0.14 0  1.23 0.14 0  1.26 0.14 0  1.29 0.14 0  1.32 0.14 0  1.35 0.14 0  1.38 0.14 0  1.41 0.14 0  1.44 0.14 0  1.47 0.14 0  1.5 0.14 0  0 0.16 0  0.03 0.16 0  0.06 0.16 0  0.09 0.16 0  0.12 0.16 0  0.15 0.16 0  0.18 0.16 0  0.21 0.16 0  0.24 0.16 0  0.27 0.16 0  0.3 0.16 0  0.33 0.16 0  0.36 0.16 0  0.39 0.16 0  0.42 0.16 0  0.45 0.16 0  0.48 0.16 0  0.51 0.16 0  0.54 0.16 0  0.57 0.16 0  0.6 0.16 0  0.63 0.16 0  0.66 0.16 0  0.6899999999999999 0.16 0  0.72 0.16 0  0.75 0.16 0  0.78 0.16 0  0.8100000000000001 0.16 0  0.84 0.16 0  0.87 0.16 0  0.9 0.16 0  0.93 0.16 0  0.96 0.16 0  0.99 0.16 0  1.02 0.16 0  1.05 0.16 0  1.08 0.16 0  1.11 0.16 0  1.14 0.16 0  1.17 0.16 0  1.2 0.16 0  1.23 0.16 0  1.26 0.16 0  1.29 0.16 0  1.32 0.16 0  1.35 0.16 0  1.38 0.16 0  1.41 0.16 0  1.44 0.16 0  1.47 0.16 0  1.5 0.16 0  0 0.18 0  0.03 0.18 0  0.06 0.18 0  0.09 0.18 0  0.12 0.18 0  0.15 0.18 0  0.18 0.18 0  0.21 0.18 0  0.24 0.18 0  0.27 0.18 0  0.3 0.18 0  0.33 0.18 0  0.36 0.18 0  0.39 0.18 0  0.42 0.18 0  0.45 0.18 0  0.48 0.18 0  0.51 0.18 0  0.54 0.18 0  0.57 0.18 0  0.6 0.18 0  0.63 0.18 0  0.66 0.18 0  0.6899999999999999 0.18 0  0.72 0.18 0  0.75 0.18 0  0.78 0.18 0  0.8100000000000001 0.18 0  0.84 0.18 0  0.87 0.18 0  0.9 0.18 0  0.93 0.18 0  0.96 0.18 0  0.99 0.18 0  1.02 0.18 0  1.05 0.18 0  1.08 0.18 0  1.11 0.18 0  1.14 0.18 0  1.17 0.18 0  1.2 0.18 0  1.23 0.18 0  1.26 0.18 0  1.29 0.18 0  1.32 0.18 0  1.35 0.18 0  1.38 0.18 0  1.41 0.18 0  1.44 0.18 0  1.47 0.18 0  1.5 0.18 0  0 0.2 0  0.03 0.2 0  0.06 0.2 0  0.09 0.2 0  0.12 0.2 0  0.15 0.2 0  0.18 0.2 0  0.21 0.2 0  0.24 0.2 0  0.27 0.2 0  0.3 0.2 0  0.33 0.2 0  0.36 0.2 0  0.39 0.2 0  0.42 0.2 0  0.45 0.2 0  0.48 0.2 0  0.51 0.2 0  0.54 0.2 0  0.57 0.2 0  0.6 0.2 0  0.63 0.2 0  0.66 0.2 0  0.6899999999999999 0.2 0  0.72 0.2 0  0.75 0.2 0  0.78 0.2 0  0.8100000000000001 0.2 0  0.84 0.2 0  0.87 0.2 0  0.9 0.2 0  0.93 0.2 0  0.96 0.2 0  0.99 0.2 0  1.02 0.2 0  1.05 0.2 0  1.08 0.2 0  1.11 0.2 0  1.14 0.2 0  1.17 0.2 0  1.2 0.2 0  1.23 0.2 0  1.26 0.2 0  1.29 0.2 0  1.32 0.2 0  1.35 0.2 0  1.38 0.2 0  1.41 0.2 0  1.44 0.2 0  1.47 0.2 0  1.5 0.2 0  0 0.22 0  0.03 0.22 0  0.06 0.22 0  0.09 0.22 0  0.12 0.22 0  0.15 0.22 0  0.18 0.22 0  0.21 0.22 0  0.24 0.22 0  0.27 0.22 0  0.3 0.22 0  0.33 0.22 0  0.36 0.22 0  0.39 0.22 0  0.42 0.22 0  0.45 0.22 0  0.48 0.22 0  0.51 0.22 0  0.54 0.22 0  0.57 0.22 0  0.6 0.22 0  0.63 0.22 0  0.66 0.22 0  0.6899999999999999 0.22 0  0.72 0.22 0  0.75 0.22 0  0.78 0.22 0  0.8100000000000001 0.22 0  0.84 0.22 0  0.87 0.22 0  0.9 0.22 0  0.93 0.22 0  0.96 0.22 0  0.99 0.22 0  1.02 0.22 0  1.05 0.22 0  1.08 0.22 0  1.11 0.22 0  1.14 0.22 0  1.17 0.22 0  1.2 0.22 0  1.23 0.22 0  1.26 0.22 0  1.29 0.22 0  1.32 0.22 0  1.35 0.22 0  1.38 0.22 0  1.41 0.22 0  1.44 0.22 0  1.47 0.22 0  1.5 0.22 0  0 0.24 0  0.03 0.24 0  0.06 0.24 0  0.09 0.24 0  0.12 0.24 0  0.15 0.24 0  0.18 0.24 0  0.21 0.24 0  0.24 0.24 0  0.27 0.24 0  0.3 0.24 0  0.33 0.24 0  0.36 0.24 0  0.39 0.24 0  0.42 0.24 0  0.45 0.24 0  0.48 0.24 0  0.51 0.24 0  0.54 0.24 0  0.57 0.24 0  0.6 0.24 0  0.63 0.24 0  0.66 0.24 0  0.6899999999999999 0.24 0  0.72 0.24 0  0.75 0.24 0  0.78 0.24 0  0.8100000000000001 0.24 0  0.84 0.24 0  0.87 0.24 0  0.9 0.24 0  0.93 0.24 0  0.96 0.24 0  0.99 0.24 0  1.02 0.24 0  1.05 0.24 0  1.08 0.24 0  1.11 0.24 0  1.14 0.24 0  1.17 0.24 0  1.2 0.24 0  1.23 0.24 0  1.26 0.24 0  1.29 0.24 0  1.32 0.24 0  1.35 0.24 0  1.38 0.24 0  1.41 0.24 0  1.44 0.24 0  1.47 0.24 0  1.5 0.24 0  0 0.26 0  0.03 0.26 0  0.06 0.26 0  0.09 0.26 0  0.12 0.26 0  0.15 0.26 0  0.18 0.26 0  0.21 0.26 0  0.24 0.26 0  0.27 0.26 0  0.3 0.26 0  0.33 0.26 0  0.36 0.26 0  0.39 0.26 0  0.42 0.26 0  0.45 0.26 0  0.48 0.26 0  0.51 0.26 0  0.54 0.26 0  0.57 0.26 0  0.6 0.26 0  0.63 0.26 0  0.66 0.26 0  0.6899999999999999 0.26 0  0.72 0.26 0  0.75 0.26 0  0.78 0.26 0  0.8100000000000001 0.26 0  0.84 0.26 0  0.87 0.26 0  0.9 0.26 0  0.93 0.26 0  0.96 0.26 0  0.99 0.26 0  1.02 0.26 0  1.05 0.26 0  1.08 0.26 0  1.11 0.26 0  1.14 0.26 0  1.17 0.26 0  1.2 0.26 0  1.23 0.26 0  1.26 0.26 0  1.29 0.26 0  1.32 0.26 0  1.35 0.26 0  1.38 0.26 0  1.41 0.26 0  1.44 0.26 0  1.47 0.26 0  1.5 0.26 0  0 0.28 0  0.03 0.28 0  0.06 0.28 0  0.09 0.28 0  0.12 0.28 0  0.15 0.28 0  0.18 0.28 0  0.21 0.28 0  0.24 0.28 0  0.27 0.28 0  0.3 0.28 0  0.33 0.28 0  0.36 0.28 0  0.39 0.28 0  0.42 0.28 0  0.45 0.28 0  0.48 0.28 0  0.51 0.28 0  0.54 0.28 0  0.57 0.28 0  0.6 0.28 0  0.63 0.28 0  0.66 0.28 0  0.6899999999999999 0.28 0  0.72 0.28 0  0.75 0.28 0  0.78 0.28 0  0.8100000000000001 0.28 0  0.84 0.28 0  0.87 0.28 0  0.9 0.28 0  0.93 0.28 0  0.96 0.28 0  0.99 0.28 0  1.02 0.28
[...]
<PointData  Scalars="ControlVisualisation"> 
<DataArray  type="Float64"  Name="ControlVisualisation"  format="ascii">5.4467207066060050e-03  3.6413948441252459e-03  3.6530629847872594e-03  3.6770621952262141e-03  3.7139360865883326e-03  3.7593663271289724e-03  3.8068229564839576e-03  3.8506161979041517e-03  3.8872049136214129e-03  3.9151266711560939e-03  3.9343906242401859e-03  3.9458616553319096e-03  3.9508183779450963e-03  3.9506697948039028e-03  3.9467790383356975e-03  3.9403645186546557e-03  3.9324584487831502e-03  3.9239016479679627e-03  3.9153563478622217e-03  3.9073262197702021e-03  3.9001794659988512e-03  3.8941735622729547e-03  3.8894800672186793e-03  3.8862071922915226e-03  3.8844179764114940e-03  3.8841428685497952e-03  3.8853865085286886e-03  3.8881289482672410e-03  3.8923214478759536e-03  3.8978766609980972e-03  3.9046529723104372e-03  3.9124333226035497e-03  3.9208998697235460e-03  3.9296067482258949e-03  3.9379538601144355e-03  3.9451651158332523e-03  3.9502753848811656e-03  3.9521331494526638e-03  3.9494300100338343e-03  3.9407730565163331e-03  3.9248164434550195e-03  3.9004871771060948e-03  3.8673543374474779e-03  3.8261972630704256e-03  3.7796574193054528e-03  3.7325788745835578e-03  3.6913719855949725e-03  3.6617042233573400e-03  3.6452775655746936e-03  3.6387567754021396e-03  1.0575683699106020e-02  3.6395932194253802e-03  1.8260091063761990e-03  1.8386806000014776e-03  1.8668248705320321e-03  1.9131221705607974e-03  1.9741925326391442e-03  2.0424552316056317e-03  2.1095933602688294e-03  2.1689848796310530e-03  2.2166391883699718e-03  2.2510593637838617e-03  2.2726189443863822e-03  2.2828816146242999e-03  2.2840180448904460e-03  2.2783532556373922e-03  2.2680648508111231e-03  2.2550268052251342e-03  2.2407599885930752e-03  2.2264430210177958e-03  2.2129506276723863e-03  2.2009027491948531e-03  2.1907169375499436e-03  2.1826593256338862e-03  2.1768897441528192e-03  2.1734974628880958e-03  2.1725259636763967e-03  2.1739869504586243e-03  2.1778645241425248e-03  2.1841100294931206e-03  2.1926270749766112e-03  2.2032455112288253e-03  2.2156836565672550e-03  2.2294998986748440e-03  2.2440372656436615e-03  2.2583671630441574e-03  2.2712403284389435e-03  2.2810563023155351e-03  2.2858712411844445e-03  2.2834747747961068e-03  2.2715689765998603e-03  2.2480750480286162e-03  2.2115854427482051e-03  2.1619612351123935e-03  2.1010229125991270e-03  2.0331460835330871e-03  1.9652868253256287e-03  1.9058143654584350e-03  1.8619243329114847e-03  1.8362703359953289e-03  1.8252053646135090e-03  3.6384033855736265e-03  3.6431077493065058e-03  1.8299738295764853e-03  1.8468653527986172e-03  1.8838072344829512e-03  1.9435725009544561e-03  2.0213496518051571e-03  2.1079501902023464e-03  2.1933787640056011e-03  2.2693355059701659e-03  2.3305105977935942e-03  2.3746477376429343e-03  2.4019311340908000e-03  2.4142427976683498e-03  2.4144242529812120e-03  2.4056127246859377e-03  2.3907685718327337e-03  2.3724313515610302e-03  2.3526461230034997e-03  2.3329807473759755e-03  2.3145814422819429e-03  2.2982428216720063e-03  2.2844832671693087e-03  2.2736191005527781e-03  2.2658301941705017e-03  2.2612111396343943e-03  2.2598058511059658e-03  2.2616267177967583e-03  2.2666604425194458e-03  2.2748616849223233e-03  2.2861336092646236e-03  2.3002928353161875e-03  2.3170169876077524e-03  2.3357762234813822e-03  2.3557536569612479e-03  2.3757622826398169e-03  2.3941691051335458e-03  2.4088453176546801e-03  2.4171724387865331e-03  2.4161563959387050e-03  2.4027014966047145e-03  2.3740844418067798e-03  2.3285528918884218e-03  2.2660573402179364e-03  2.1889548664358084e-03  2.1027697664835151e-03  2.0160622731613983e-03  1.9388505340261211e-03  1.8801837367749029e-03  1.8447187164214035e-03  1.8291377662436803e-03  3.6410233013918522e-03  3.6464191080769993e-03  1.8355300259628655e-03  1.8592475014388757e-03  1.9059245929462522e-03  1.9749135191521050e-03  2.0585262277793390e-03  2.1474803599390779e-03  2.2326287816153488e-03  2.3064610100435932e-03  2.3644966539799689e-03  2.4050643060728144e-03  2.4286229710818999e-03  2.4372325392872573e-03  2.4339097063088978e-03  2.4219236968945120e-03  2.4042933835040363e-03  2.3835628726449963e-03  2.3617598746762782e-03  2.3404301501274592e-03  2.3206946772593197e-03  2.3033162562868296e-03  2.2887750749398268e-03  2.2773481345181113e-03  2.2691813636960649e-03  2.2643448849658499e-03  2.2628686568972301e-03  2.2647610783059504e-03  2.2700143552605552e-03  2.2785985404427272e-03  2.2904428351526755e-03  2.3053998282678936e-03  2.3231894612797833e-03  2.3433254829703324e-03  2.3650318554355046e-03  2.3871564840906548e-03  2.4080919463721293e-03  2.4257143515291307e-03  2.4373620586406347e-03  2.4399524205618397e-03  2.4302871137062442e-03  2.4055659649377995e-03  2.3637904062073717e-03  2.3045671726866866e-03  2.2294893442885160e-03  2.1433355874866875e-03  2.0535317015991654e-03  1.9693868125155440e-03  1.9007843615712759e-03  1.8552168332455175e-03  1.8336817847193893e-03  3.6446637844171278e-03  3.6457896140708575e-03  1.8426684998281463e-03  1.8848963305909852e-03  1.9538434688891283e-03  2.0375223249350649e-03  2.1241856376974792e-03  2.2099566871303373e-03  2.2889867580274514e-03  2.3553067262509150e-03  2.4057291749468241e-03  2.4390807985477728e-03  2.4558782259013080e-03  2.4582949376867501e-03  2.4495365323301188e-03  2.4329736354276677e-03  2.4115913455276467e-03  2.3878297597988685e-03  2.3636086836193483e-03  2.3403868011112557e-03  2.3192128193098281e-03  2.3007786527424611e-03  2.2854908964448266e-03  2.2735571221831827e-03  2.2650672265810559e-03  2.2600532257098216e-03  2.2585242890791053e-03  2.2604828612071974e-03  2.2659286634766620e-03  2.2748538186576992e-03  2.2872269305797091e-03  2.3029582986734166e-03  2.3218393391921197e-03  2.3434619929855590e-03  2.3671328169441422e-03  2.3917902856803903e-03  2.4159253524570338e-03  2.4374947902145775e-03  2.4538777731030483e-03  2.4620059848362665e-03  2.4586037938879135e-03  2.4407998302195776e-03  2.4064759322325593e-03  2.3556435699538434e-03  2.2891111871382610e-03  2.2096544997788343e-03  2.1213234782391666e-03  2.0312413274410942e-03  1.9467095578302005e-03  1.8779480166063018e-03  1.8377609614325860e-03  3.6460755758375585e-03  3.6466905088029340e-03  1.8614114657980914e-03  1.9871697889425077e-03  2.1674678142674375e-03  2.2851811140151075e-03  2.3288522987801779e-03  2.3536487569238824e-03  2.3886233638315767e-03  2.4285222980965897e-03  2.4628764547749704e-03  2.4846531829957191e-03  2.4916033402555375e-03  2.4852696812148818e-03  2.4690037095188048e-03  2.4462648539258494e-03  2.4199148615315640e-03  2.3921910944270171e-03  2.3648378905252797e-03  2.3391893430228993e-03  2.3161976159727458e-03  2.2964566639660064e-03  2.2802661557991830e-03  2.2677321169984137e-03  2.2588650001770048e-03  2.2536454542496556e-03  2.2520560449397244e-03  2.2540919002672637e-03  2.2597620463825044e-03  2.2690865970166757e-03  2.2820869395275369e-03  2.2987549493031574e-03  2.3189844745712209e-03  2.3424771041373900e-03  2.3686533285148998e-03  2.3965813454009726e-03  2.4248982856320805e-03  2.4517216416250695e-03  2.4745963709703550e-03  2.4903898124129307e-03  2.4956750187979200e-03  2.4884235665970996e-03  2.4685672415455310e-03  2.4395508613628903e-03  2.4096040573127133e-03  2.3868530944840590e-03  2.3626345877416884e-03  2.2967489647588201e-03  2.1200898045174526e-03  1.9378357889811152e-03  1.8445039535167486e-03  3.6435011452022313e-03  3.7305351801312733e-03  2.0058218645232846e-03  2.7756538312004972e-03  4.5264100810977438e-03  5.5762147607355773e-03  4.4612155184888562e-03  3.3383670719062029e-03  2.7857074027321589e-03  2.5947432816220400e-03  2.5534682547577385e-03  2.5469331611138592e-03  2.5378343266872065e-03  2.5192244293049597e-03  2.4930089304008121e-03  2.4623681494350689e-03  2.4297900202021267e-03  2.3971436199350803e-03  2.3659136577281925e-03  2.3372780469603704e-03  2.3120793463049152e-03  2.2907879144100510e-03  2.2735539656291580e-03  2.2603399508601242e-03  2.2510493911543483e-03  2.2455990477350247e-03  2.2439410136708879e-03  2.2460627064336391e-03  2.2519835164053945e-03  2.2617553006233694e-03  2.2754648384600874e-03  2.2932149741186360e-03  2.3150427486124557e-03  2.3407954768003931e-03  2.3700305190402110e-03  2.4019856728133208e-03  2.4355279015697284e-03  2.4690898245507409e-03  2.5004247494549679e-03  2.5263765871738290e-03  2.5452244957666261e-03  2.5586434681500454e-03  2.5799960626468142e-03  2.6553548061615606e-03  2.8883239711125783e-03  3.3961070555250418e-03  4.3307583828610871e-03  5.4078308592825459e-03  4.7786067368215277e-03  2.9217295689364618e-03  1.9619555145754205e-03  3.6557525074278263e-03  4.0274733395913621e-03  3.9774311875043948e-03  3.6106282074331100e-02  6.4276489385135332e-02  6.1214271852374297e-02  4.3050603496178168e-02  2.0800565305026584e-02  7.2708741117810220e-03  3.6578614257365676e-03  2.8523999460421954e-03  2.6615131632241685e-03  2.6022593144289555e-03  2.5616843823512946e-03  2.5216802187637026e-03  2.4811462427418028e-03  2.4410460757483092e-03  2.4025193719961575e-03  2.3666675293326721e-03  2.3344866506777250e-03  2.3067172155939297e-03  2.2836815568388516e-03  2.2653183766232639e-03  2.2513869803892548e-03  2.2416521453122664e-03  2.2359578737683266e-03  2.2342260528832297e-03  2.2364377513648930e-03  2.2426223813124535e-03  2.2528626496820573e-03  2.2673191930133564e-03  2.2862427477043415e-03  2.3098729968081058e-03  2.3382468817184964e-03  2.3710705284649999e-03  2.4078191215088592e-03  2.4476941051126441e-03  2.4895752285979725e-03  2.5320484750182130e-03  2.5743600162558534e-03  2.6214912054241613e-03  2.7049169489236358e-03  2.9562883728074382e-03  3.7228493127502652e-03  6.6076726481718627e-03  1.7826132814155994e-02  3.8193367046433176e-02  5.8067990255275134e-02  6.5631467216568137e-02  5.3342869483326935e-02  4.0184216645838301e-03  3.8959443709594907e-03  7.9796333995341244e-03  9.1938847157267661e-02  2.1572083671793571e-01  2.2169425352208549e-01  1.8927765301085150e-01  1.4325402414025892e-01  9.3110531050293904e-02  4.9403939930172197e-02  1.7477566965430277e-02  5.2257044885826798e-03  3.1790646085786329e-03  2.7501101980389755e-03  2.6248578552133710e-03  2.5571118639826766e-03  2.5027997654294260e-03  2.4535348176971936e-03  2.4081107866080098e-03  2.3668658295932527e-03  2.3305605057838954e-03  2.2998827321886336e-03  2.2749834528460822e-03  2.2554853139420449e-03  2.2408542333620246e-03  2.2306828626541117e-03  2.2247436268702275e-03  2.2229357516975233e-03  2.2252375931694226e-03  2.2316865366354376e-03  2.2423876044420166e-03  2.2575699295001631e-03  2.2776775744807621e-03  2.3032569328991876e-03  2.3346034846189337e-03  2.3715557963758099e-03  2.4138714298478771e-03  2.4613546177685132e-03  2.5142132465533636e-03  2.5753184415912914e-03  2.6556069411303711e-03  2.8171028204678895e-03  3.2800512875870470e-03  5.0629829391615807e-03  1.4574253296800585e-02  4.2969380824383160e-02  8.7015925126768839e-02  1.3850358635282370e-01  1.8475064808747452e-01  2.1579437000435889e-01  2.1219850202969015e-01  1.1566500081685997e-01  5.9953720023323449e-03  4.1708967029759514e-01  4.6627609242620305e-01  5.0009826409689395e-01  4.2975845771798349e-01  3.6266443578645091e-01  2.8561700153391850e-01  2.0601365988677375e-01  1.3288126636626008e-01  7.3872022480086286e-02  3.1018822943727840e-02  8.0051541493216787e-03  3.6024249725044657e-03  2.8211163212011861e-03  2.6211832462782712e-03  2.5320090249479630e-03  2.4682078623441215e-03  2.4140477380469763e-03  2.3663892726857377e-03  2.3252448516238944e-03  2.2913173800474204e-03  2.2645394362300446e-03  2.2440108286475198e-03  2.2287598758440057e-03  2.2181835356780868e-03  2.2120059968120417e-03  2.2101213061488678e-03  2.2125108614468765e-03  2.2192191943906357e-03  2.2303529674536481e-03  2.2461709229580963e-03  2.2673639476217047e-03  2.2949882937906918e-03  2.3297213759149800e-03  2.3715089380555894e-03  2.4205561378756383e-03  2.4790618134890225e-03  2.5518296650440591e-03  2.6651284329623761e-03  2.9230430062768403e-03  3.6860069246190163e-03  7.0852534407258088e-03  2.5445510964047815e-02  6.7258486075515239e-02  1.2914505294145345e-01  2.0161794632402030e-01  2.8005571014183400e-01  3.5888300472564705e-01  4.2371160390917689e-01  4.5588600134327850e-01  4.8036271733921465e-01  3.6011351634795014e-01  9.8163287764409179e-01  9.5591076736207570e-01  7.9621543058410227e-01  6.6739401491381378e-01  5.6523722672730137e-01  4.5290284817347898e-01  3.4714769660578138e-01  2.4822706452149226e-01  1.6158005799803166e-01  9.2310095076027318e-02  4.2878905770581933e-02  1.3124830792934795e-02  4.2403462046920748e-03  2.9264863541233386e-03  2.6156676569704554e-03  2.4970381976038786e-03  2.4240509669232590e-03  2.3665542554800177e-03  2.3188865274117662e-03  2.2810764506067576e-03  2.2524704916622781e-03  2.2311169550154539e-03  2.2153532321619578e-03  2.2043944014601010e-03  2.1979771404025596e-03  2.1960144943242057e-03  2.1984962623912683e-03  2.2054802351257541e-03  2.2170436572386794e-03  2.2333926332213094e-03  2.2554830374725940e-03  2.2853549440474638e-03  2.3245310870483298e-03  2.3734732959545209e-03  2.4338191944739142e-03  2.5197310287235113e-03  2.6708496007399702e-03  3.0593954810146737e-03  4.2758227608855415e-03  1.0324636870887926e-02  3.6840404455365260e-02  8.6911777729531473e-02  1.5790001865105846e-01  2.4473323654938778e-01  3.4284995851021877e-01  4.5019866632113004e-01  5.5264972399890233e-01  6.6172288423592041e-01  8.0983702583466266e-01  9.6540097917719170e-01  9.6472788803804976e-01  9.9560811535416371e-01  9.9625874131733727e-01  9.8829288097615386e-01  8.9947709061059855e-01  7.5177068752199772e-01  6.2334282302478794e-01  4.9963758607392761e-01  3.8251415629608415e-01  2.7530702857653561e-01  1.8243195045981941e-01  1.0794814609602696e-01  5.3902946589840108e-02  2.0030620819079758e-02  5.6025817282130373e-03  3.2255521686945067e-03  2.6657929868221654e-03  2.4790261569553012e-03  2.3841026877824143e-03  2.3194910564768010e-03  2.2738696919222087e-03  2.2423455845360443e-03  2.2198101895940219e-03  2.2032265968572203e-03  2.1916427357791088e-03  2.1848617256777199e-03  2.1828016162353074e-03  2.1854461899177939e-03  2.1929083807214773e-03  2.2052878634064394e-03  2.2226621936967911e-03  2.2461314596653654e-03  2.2803074510852803e-03  2.3296339734950326e-03  2.3997651599338239e-03  2.5093487852365973e-03  2.7472451663673584e-03  3.3320321537505834e-03  5.3694340005684838e-03  1.6739544887239027e-02  4.7837739130766083e-02  1.0318857254510028e-01  1.7885668746144895e-01  2.7193554282742399e-01  3.7896208253253943e-01  4.9742504735149068e-01  6.1735916512549871e-01  7.5002291649609454e-01  9.2367595197172625e-01  9.9143605421909520e-01  9.9661664713206144e-01  9.9421268822210496e-01  9.9705979500404585e-01  9.9804029466229294e-01  9.9614196721577686e-01  9.8729797996100077e-01  9.0613499354823657e-01  7.7189182824059543e-01  6.4515123063607416e-01  5.2035256928064066e-01  4.0176490292347139e-01  2.9350368364334889e-01  1.9984298988547960e-01  1.2449408650793432e-01  6.8515163240054924e-02  3.2676277114433140e-02  9.9902459510110130e-03  4.3638462707130650e-03  3.0585363023842315e-03  2.6194747070721175e-03  2.4307271303769229e-03  2.3342208999849769e-03  2.2805066884375820e-03  2.2466857087935668e-03  2.2233310569668959e-03  2.2077280285180494e-03  2.1989516911528968e-03  2.1964409623631098e-03  2.2000049749080633e-03  2.2100820104449435e-03  2.2275246605351650e-03  2.2532491908300836e-03  2.2902694702003766e-03  2.3535308632376935e-03  2.4672529436285313e-03  2.6802833079891397e-03  3.0998900603496256e-03  4.2651314820974420e-03  8.8717322391352223e-03  2.6476856089875267e-02  6.2996872186972058e-02  1.2065094137836770e-01  1.9664920188346863e-01  2.8995472822936491e-01  3.9851068671012169e-01  5.1823293862643249e-01  6.4281437603468783e-01  7.7251461443783098e-01  9.2307118715537440e-01  9.8933177324047972e-01  9.9625411105359141e-01  9.9803967669043148e-01  9.9683532811605591e-01  9.9689116505613395e-01  9.9818174286206029e-01  9.9699202977463297e-01  9.9344129400474002e-01  9.7515043454192207e-01  8.8315998991873124e-01  7.6738434828639557e-01  6.4777751360255009e-01  5.2838580316434169e-01  4.1387052538988195e-01  3.0969782587525335e-01  2.1951955568859091e-01  1.4637284991933019e-01  9.0691647688101021e-02  5.2791746520892184e-02  2.6992021712623729e-02  1.1431198125313720e-02  5.7078375779519861e-03  3.9091839742374035e-03  3.2493262714867561e-03  2.9481312848779482e-03  2.7793641582169780e-03  2.6783339336104218e-03  2.6191348010167108e-03  2.5880925136109929e-03  2.5787353582650096e-03  2.5889991951828718e-03  2.6216081851750343e-03  2.6838703346846403e-03  2.7847708836924081e-03  2.9413883702660132e-03  3.2471748109783104e-03  3.8923616186688427e-03  5.4583346013072249e-03  9.8406228669708287e-03  2.2340343279361775e-02  4.7349100183438235e-02  8.6847540261940387e-02  1.4331474803346980e-01  2.1650828296514282e-01  3.0602200473424074e-01  4.1101734229112474e-01  5.2648248989969337e-01  6.4715412972736375e-01  7.6827575781696611e-01  8.9190752807783191e-01  9.7816897209591769e-01  9.9337881132667316e-01  9.9689299568150069e-01  9.9813771197444312e-01  9.9707415153285139e-01  9.9449563542905417e-01  9.9729836247696024e-01  9.9605536526785887e-01  9.9307873539463765e-01  9.8368361356612311e-01  9.4174760449815986e-01  8.5506405048340783e-01  7.5365007643444082e-01  6.4416096110294396e-01  5.3326029237562944e-01  4.2688206439991683e-01  3.3064553438491440e-01  2.4772015122400567e-01  1.7974562527276430e-01  1.2735280087206821e-01  8.8695666002722190e-02  6.1159118204028161e-02  4.2098727872494107e-02  3.0322681489715109e-02  2.1413413966496524e-02  1.6006719253403592e-02  1.3128591466322915e-02  1.1277300645475058e-02  1.0194639669521168e-02  9.6557530293633256e-03  9.4848286648739413e-03  9.6081504808662854e-03  1.0093682584783518e-02  1.1106218208651302e-02  1.2810014476429746e-02  1.5430511514230629e-02  2.0292815109857573e-02  2.8236864975019475e-02  3.8848246817098094e-02  5.7507462833743597e-02  8.5095165194299771e-02  1.2470220554260288e-01  1.7746082136354566e-01  2.4467992224828405e-01  3.2711869588252485e-01  4.2440304482972541e-01  5.3175624615160255e-01  6.4396638790298233e-01  7.5501762705454023e-01  8.5898152084153567e-01  9.4543977116190381e-01  9.8302889439855956e-01  9.9247133258324505e-01  9.9572845517807140e-01  9.9712943805462040e-01  9.9576416262724410e-01  9.6341572866519398e-01  9.8916657572051192e-01  9.8810159400143160e-01  9.8456267086674909e-01  9.7546022566143054e-01  9.5107741147580871e-01  9.0130285087756390e-01  8.2893350376375474e-01  7.3982389219640654e-01  6.4206516859525831e-01  5.4265782567933629e-01  4.4809388863519861e-01  3.6357432440949716e-01  2.9169372798448445e-01  2.3270405035303099e-01  1.8659574222046374e-01  1.5178340902424958e-01  1.2623863319841749e-01  1.0850486827509551e-01  9.6506084000498427e-02  8.7724731594381544e-02  8.1554635919787108e-02  7.7370077161801346e-02  7.4504204347177985e-02  7.2797507255247168e-02  7.2317650518532062e-02  7.2826591653348732e-02  7.4220386172918762e-02  7.6647624148715870e-02  8.0435795079288955e-02  8.6268913930756058e-02  9.4975195810134097e-02  1.0734178545914509e-01  1.2492475802180059e-01  1.5020866377405501e-01  1.8486823468867772e-01  2.3081349825454880e-01  2.8874949638975894e-01  3.6066519124660801e-01  4.4621908053567372e-01  5.4162118328295716e-01  6.4216467823446288e-01  7.4113061226980570e-01  8.3128133414997296e-01  9.0482016414047084e-01  9.5152215129792417e-01  9.7416661829275319e-01  9.8316094481116689e-01  9.8805243420464950e-01  9.9009425096781889e-01  9.8450958970306535e-01  3.4400053266196856e-01  6.5039640505416574e-01  7.9590244430349644e-01  8.8274706413971149e-01  9.1836721743651539e-01  9.2452329500936381e-01  9.0824557125361161e-01  8.6876641718088832e-01  8.0789262102764903e-01  7.3191106458713973e-01  6.4824196179960225e-01  5.6411094067048895e-01  4.856130522