<?xml version="1.0"?>
<VTKFile type="UnstructuredGrid"  version="0.1"  >
<UnstructuredGrid>
<Piece  NumberOfPoints="2601" NumberOfCells="5000">
<Points>
<DataArray  type="Float64"  NumberOfComponents="3"  format="ascii">0 0 0  0.03 0 0  0.06 0 0  0.09 0 0  0.12 0 0  0.15 0 0  0.18 0 0  0.21 0 0  0.24 0 0  0.27 0 0  0.3 0 0  0.33 0 0  0.36 0 0  0.39 0 0  0.42 0 0  0.45 0 0  0.48 0 0  0.51 0 0  0.54 0 0  0.57 0 0  0.6 0 0  0.63 0 0  0.66 0 0  0.6899999999999999 0 0  0.72 0 0  0.75 0 0  0.78 0 0  0.8100000000000001 0 0  0.84 0 0  0.87 0 0  0.9 0 0  0.93 0 0  0.96 0 0  0.99 0 0  1.02 0 0  1.05 0 0  1.08 0 0  1.11 0 0  1.14 0 0  1.17 0 0  1.2 0 0  1.23 0 0  1.26 0 0  1.29 0 0  1.32 0 0  1.35 0 0  1.38 0 0  1.41 0 0  1.44 0 0  1.47 0 0  1.5 0 0  0 0.02 0  0.03 0.02 0  0.06 0.02 0  0.09 0.02 0  0.12 0.02 0  0.15 0.02 0  0.18 0.02 0  0.21 0.02 0  0.24 0.02 0  0.27 0.02 0  0.3 0.02 0  0.33 0.02 0  0.36 0.02 0  0.39 0.02 0  0.42 0.02 0  0.45 0.02 0  0.48 0.02 0  0.51 0.02 0  0.54 0.02 0  0.57 0.02 0  0.6 0.02 0  0.63 0.02 0  0.66 0.02 0  0.6899999999999999 0.02 0  0.72 0.02 0  0.75 0.02 0  0.78 0.02 0  0.8100000000000001 0.02 0  0.84 0.02 0  0.87 0.02 0  0.9 0.02 0  0.93 0.02 0  0.96 0.02 0  0.99 0.02 0  1.02 0.02 0  1.05 0.02 0  1.08 0.02 0  1.11 0.02 0  1.14 0.02 0  1.17 0.02 0  1.2 0.02 0  1.23 0.02 0  1.26 0.02 0  1.29 0.02 0  1.32 0.02 0  1.35 0.02 0  1.38 0.02 0  1.41 0.02 0  1.44 0.02 0  1.47 0.02 0  1.5 0.02 0  0 0.04 0  0.03 0.04 0  0.06 0.04 0  0.09 0.04 0  0.12 0.04 0  0.15 0.04 0  0.18 0.04 0  0.21 0.04 0  0.24 0.04 0  0.27 0.04 0  0.3 0.04 0  0.33 0.04 0  0.36 0.04 0  0.39 0.04 0  0.42 0.04 0  0.45 0.04 0  0.48 0.04 0  0.51 0.04 0  0.54 0.04 0  0.57 0.04 0  0.6 0.04 0  0.63 0.04 0  0.66 0.04 0  0.6899999999999999 0.04 0  0.72 0.04 0  0.75 0.04 0  0.78 0.04 0  0.8100000000000001 0.04 0  0.84 0.04 0  0.87 0.04 0  0.9 0.04 0  0.93 0.04 0  0.96 0.04 0  0.99 0.04 0  1.02 0.04 0  1.05 0.04 0  1.08 0.04 0  1.11 0.04 0  1.14 0.04 0  1.17 0.04 0  1.2 0.04 0  1.23 0.04 0  1.26 0.04 0  1.29 0.04 0  1.32 0.04 0  1.35 0.04 0  1.38 0.04 0  1.41 0.04 0  1.44 0.04 0  1.47 0.04 0  1.5 0.04 0  0 0.06 0  0.03 0.06 0  0.06 0.06 0  0.09 0.06 0  0.12 0.06 0  0.15 0.06 0  0.18 0.06 0  0.21 0.06 0  0.24 0.06 0  0.27 0.06 0  0.3 0.06 0  0.33 0.06 0  0.36 0.06 0  0.39 0.06 0  0.42 0.06 0  0.45 0.06 0  0.48 0.06 0  0.51 0.06 0  0.54 0.06 0  0.57 0.06 0  0.6 0.06 0  0.63 0.06 0  0.66 0.06 0  0.6899999999999999 0.06 0  0.72 0.06 0  0.75 0.06 0  0.78 0.06 0  0.8100000000000001 0.06 0  0.84 0.06 0  0.87 0.06 0  0.9 0.06 0  0.93 0.06 0  0.96 0.06 0  0.99 0.06 0  1.02 0.06 0  1.05 0.06 0  1.08 0.06 0  1.11 0.06 0  1.14 0.06 0  1.17 0.06 0  1.2 0.06 0  1.23 0.06 0  1.26 0.06 0  1.29 0.06 0  1.32 0.06 0  1.35 0.06 0  1.38 0.06 0  1.41 0.06 0  1.44 0.06 0  1.47 0.06 0  1.5 0.06 0  0 0.08 0  0.03 0.08 0  0.06 0.08 0  0.09 0.08 0  0.12 0.08 0  0.15 0.08 0  0.18 0.08 0  0.21 0.08 0  0.24 0.08 0  0.27 0.08 0  0.3 0.08 0  0.33 0.08 0  0.36 0.08 0  0.39 0.08 0  0.42 0.08 0  0.45 0.08 0  0.48 0.08 0  0.51 0.08 0  0.54 0.08 0  0.57 0.08 0  0.6 0.08 0  0.63 0.08 0  0.66 0.08 0  0.6899999999999999 0.08 0  0.72 0.08 0  0.75 0.08 0  0.78 0.08 0  0.8100000000000001 0.08 0  0.84 0.08 0  0.87 0.08 0  0.9 0.08 0  0.93 0.08 0  0.96 0.08 0  0.99 0.08 0  1.02 0.08 0  1.05 0.08 0  1.08 0.08 0  1.11 0.08 0  1.14 0.08 0  1.17 0.08 0  1.2 0.08 0  1.23 0.08 0  1.26 0.08 0  1.29 0.08 0  1.32 0.08 0  1.35 0.08 0  1.38 0.08 0  1.41 0.08 0  1.44 0.08 0  1.47 0.08 0  1.5 0.08 0  0 0.1 0  0.03 0.1 0  0.06 0.1 0  0.09 0.1 0  0.12 0.1 0  0.15 0.1 0  0.18 0.1 0  0.21 0.1 0  0.24 0.1 0  0.27 0.1 0  0.3 0.1 0  0.33 0.1 0  0.36 0.1 0  0.39 0.1 0  0.42 0.1 0  0.45 0.1 0  0.48 0.1 0  0.51 0.1 0  0.54 0.1 0  0.57 0.1 0  0.6 0.1 0  0.63 0.1 0  0.66 0.1 0  0.6899999999999999 0.1 0  0.72 0.1 0  0.75 0.1 0  0.78 0.1 0  0.8100000000000001 0.1 0  0.84 0.1 0  0.87 0.1 0  0.9 0.1 0  0.93 0.1 0  0.96 0.1 0  0.99 0.1 0  1.02 0.1 0  1.05 0.1 0  1.08 0.1 0  1.11 0.1 0  1.14 0.1 0  1.17 0.1 0  1.2 0.1 0  1.23 0.1 0  1.26 0.1 0  1.29 0.1 0  1.32 0.1 0  1.35 0.1 0  1.38 0.1 0  1.41 0.1 0  1.44 0.1 0  1.47 0.1 0  1.5 0.1 0  0 0.12 0  0.03 0.12 0  0.06 0.12 0  0.09 0.12 0  0.12 0.12 0  0.15 0.12 0  0.18 0.12 0  0.21 0.12 0  0.24 0.12 0  0.27 0.12 0  0.3 0.12 0  0.33 0.12 0  0.36 0.12 0  0.39 0.12 0  0.42 0.12 0  0.45 0.12 0  0.48 0.12 0  0.51 0.12 0  0.54 0.12 0  0.57 0.12 0  0.6 0.12 0  0.63 0.12 0  0.66 0.12 0  0.6899999999999999 0.12 0  0.72 0.12 0  0.75 0.12 0  0.78 0.12 0  0.8100000000000001 0.12 0  0.84 0.12 0  0.87 0.12 0  0.9 0.12 0  0.93 0.12 0  0.96 0.12 0  0.99 0.12 0  1.02 0.12 0  1.05 0.12 0  1.08 0.12 0  1.11 0.12 0  1.14 0.12 0  1.17 0.12 0  1.2 0.12 0  1.23 0.12 0  1.26 0.12 0  1.29 0.12 0  1.32 0.12 0  1.35 0.12 0  1.38 0.12 0  1.41 0.12 0  1.44 0.12 0  1.47 0.12 0  1.5 0.12 0  0 0.14 0  0.03 0.14 0  0.06 0.14 0  0.09 0.14 0  0.12 0.14 0  0.15 0.14 0  0.18 0.14 0  0.21 0.14 0  0.24 0.14 0  0.27 0.14 0  0.3 0.14 0  0.33 0.14 0  0.36 0.14 0  0.39 0.14 0  0.42 0.14 0  0.45 0.14 0  0.48 0.14 0  0.51 0.14 0  0.54 0.14 0  0.57 0.14 0  0.6 0.14 0  0.63 0.14 0  0.66 0.14 0  0.6899999999999999 0.14 0  0.72 0.14 0  0.75 0.14 0  0.78 0.14 0  0.8100000000000001 0.14 0  0.84 0.14 0  0.87 0.14 0  0.9 0.14 0  0.93 0.14 0  0.96 0.14 0  0.99 0.14 0  1.02 0.14 0  1.05 0.14 0  1.08 0.14 0  1.11 0.14 0  1.14 0.14 0  1.17 0.14 0  1.2 0.14 0  1.23 0.14 0  1.26 0.14 0  1.29 0.14 0  1.32 0.14 0  1.35 0.14 0  1.38 0.14 0  1.41 0.14 0  1.44 0.14 0  1.47 0.14 0  1.5 0.14 0  0 0.16 0  0.03 0.16 0  0.06 0.16 0  0.09 0.16 0  0.12 0.16 0  0.15 0.16 0  0.18 0.16 0  0.21 0.16 0  0.24 0.16 0  0.27 0.16 0  0.3 0.16 0  0.33 0.16 0  0.36 0.16 0  0.39 0.16 0  0.42 0.16 0  0.45 0.16 0  0.48 0.16 0  0.51 0.16 0  0.54 0.16 0  0.57 0.16 0  0.6 0.16 0  0.63 0.16 0  0.66 0.16 0  0.6899999999999999 0.16 0  0.72 0.16 0  0.75 0.16 0  0.78 0.16 0  0.8100000000000001 0.16 0  0.84 0.16 0  0.87 0.16 0  0.9 0.16 0  0.93 0.16 0  0.96 0.16 0  0.99 0.16 0  1.02 0.16 0  1.05 0.16 0  1.08 0.16 0  1.11 0.16 0  1.14 0.16 0  1.17 0.16 0  1.2 0.16 0  1.23 0.16 0  1.26 0.16 0  1.29 0.16 0  1.32 0.16 0  1.35 0.16 0  1.38 0.16 0  1.41 0.16 0  1.44 0.16 0  1.47 0.16 0  1.5 0.16 0  0 0.18 0  0.03 0.18 0  0.06 0.18 0  0.09 0.18 0  0.12 0.18 0  0.15 0.18 0  0.18 0.18 0  0.21 0.18 0  0.24 0.18 0  0.27 0.18 0  0.3 0.18 0  0.33 0.18 0  0.36 0.18 0  0.39 0.18 0  0.42 0.18 0  0.45 0.18 0  0.48 0.18 0  0.51 0.18 0  0.54 0.18 0  0.57 0.18 0  0.6 0.18 0  0.63 0.18 0  0.66 0.18 0  0.6899999999999999 0.18 0  0.72 0.18 0  0.75 0.18 0  0.78 0.18 0  0.8100000000000001 0.18 0  0.84 0.18 0  0.87 0.18 0  0.9 0.18 0  0.93 0.18 0  0.96 0.18 0  0.99 0.18 0  1.02 0.18 0  1.05 0.18 0  1.08 0.18 0  1.11 0.18 0  1.14 0.18 0  1.17 0.18 0  1.2 0.18 0  1.23 0.18 0  1.26 0.18 0  1.29 0.18 0  1.32 0.18 0  1.35 0.18 0  1.38 0.18 0  1.41 0.18 0  1.44 0.18 0  1.47 0.18 0  1.5 0.18 0  0 0.2 0  0.03 0.2 0  0.06 0.2 0  0.09 0.2 0  0.12 0.2 0  0.15 0.2 0  0.18 0.2 0  0.21 0.2 0  0.24 0.2 0  0.27 0.2 0  0.3 0.2 0  0.33 0.2 0  0.36 0.2 0  0.39 0.2 0  0.42 0.2 0  0.45 0.2 0  0.48 0.2 0  0.51 0.2 0  0.54 0.2 0  0.57 0.2 0  0.6 0.2 0  0.63 0.2 0  0.66 0.2 0  0.6899999999999999 0.2 0  0.72 0.2 0  0.75 0.2 0  0.78 0.2 0  0.8100000000000001 0.2 0  0.84 0.2 0  0.87 0.2 0  0.9 0.2 0  0.93 0.2 0  0.96 0.2 0  0.99 0.2 0  1.02 0.2 0  1.05 0.2 0  1.08 0.2 0  1.11 0.2 0  1.14 0.2 0  1.17 0.2 0  1.2 0.2 0  1.23 0.2 0  1.26 0.2 0  1.29 0.2 0  1.32 0.2 0  1.35 0.2 0  1.38 0.2 0  1.41 0.2 0  1.44 0.2 0  1.47 0.2 0  1.5 0.2 0  0 0.22 0  0.03 0.22 0  0.06 0.22 0  0.09 0.22 0  0.12 0.22 0  0.15 0.22 0  0.18 0.22 0  0.21 0.22 0  0.24 0.22 0  0.27 0.22 0  0.3 0.22 0  0.33 0.22 0  0.36 0.22 0  0.39 0.22 0  0.42 0.22 0  0.45 0.22 0  0.48 0.22 0  0.51 0.22 0  0.54 0.22 0  0.57 0.22 0  0.6 0.22 0  0.63 0.22 0  0.66 0.22 0  0.6899999999999999 0.22 0  0.72 0.22 0  0.75 0.22 0  0.78 0.22 0  0.8100000000000001 0.22 0  0.84 0.22 0  0.87 0.22 0  0.9 0.22 0  0.93 0.22 0  0.96 0.22 0  0.99 0.22 0  1.02 0.22 0  1.05 0.22 0  1.08 0.22 0  1.11 0.22 0  1.14 0.22 0  1.17 0.22 0  1.2 0.22 0  1.23 0.22 0  1.26 0.22 0  1.29 0.22 0  1.32 0.22 0  1.35 0.22 0  1.38 0.22 0  1.41 0.22 0  1.44 0.22 0  1.47 0.22 0  1.5 0.22 0  0 0.24 0  0.03 0.24 0  0.06 0.24 0  0.09 0.24 0  0.12 0.24 0  0.15 0.24 0  0.18 0.24 0  0.21 0.24 0  0.24 0.24 0  0.27 0.24 0  0.3 0.24 0  0.33 0.24 0  0.36 0.24 0  0.39 0.24 0  0.42 0.24 0  0.45 0.24 0  0.48 0.24 0  0.51 0.24 0  0.54 0.24 0  0.57 0.24 0  0.6 0.24 0  0.63 0.24 0  0.66 0.24 0  0.6899999999999999 0.24 0  0.72 0.24 0  0.75 0.24 0  0.78 0.24 0  0.8100000000000001 0.24 0  0.84 0.24 0  0.87 0.24 0  0.9 0.24 0  0.93 0.24 0  0.96 0.24 0  0.99 0.24 0  1.02 0.24 0  1.05 0.24 0  1.08 0.24 0  1.11 0.24 0  1.14 0.24 0  1.17 0.24 0  1.2 0.24 0  1.23 0.24 0  1.26 0.24 0  1.29 0.24 0  1.32 0.24 0  1.35 0.24 0  1.38 0.24 0  1.41 0.24 0  1.44 0.24 0  1.47 0.24 0  1.5 0.24 0  0 0.26 0  0.03 0.26 0  0.06 0.26 0  0.09 0.26 0  0.12 0.26 0  0.15 0.26 0  0.18 0.26 0  0.21 0.26 0  0.24 0.26 0  0.27 0.26 0  0.3 0.26 0  0.33 0.26 0  0.36 0.26 0  0.39 0.26 0  0.42 0.26 0  0.45 0.26 0  0.48 0.26 0  0.51 0.26 0  0.54 0.26 0  0.57 0.26 0  0.6 0.26 0  0.63 0.26 0  0.66 0.26 0  0.6899999999999999 0.26 0  0.72 0.26 0  0.75 0.26 0  0.78 0.26 0  0.8100000000000001 0.26 0  0.84 0.26 0  0.87 0.26 0  0.9 0.26 0  0.93 0.26 0  0.96 0.26 0  0.99 0.26 0  1.02 0.26 0  1.05 0.26 0  1.08 0.26 0  1.11 0.26 0  1.14 0.26 0  1.17 0.26 0  1.2 0.26 0  1.23 0.26 0  1.26 0.26 0  1.29 0.26 0  1.32 0.26 0  1.35 0.26 0  1.38 0.26 0  1.41 0.26 0  1.44 0.26 0  1.47 0.26 0  1.5 0.26 0  0 0.28 0  0.03 0.28 0  0.06 0.28 0  0.09 0.28 0  0.12 0.28 0  0.15 0.28 0  0.18 0.28 0  0.21 0.28 0  0.24 0.28 0  0.27 0.28 0  0.3 0.28 0  0.33 0.28 0  0.36 0.28 0  0.39 0.28 0  0.42 0.28 0  0.45 0.28 0  0.48 0.28 0  0.51 0.28 0  0.54 0.28 0  0.57 0.28 0  0.6 0.28 0  0.63 0.28 0  0.66 0.28 0  0.6899999999999999 0.28 0  0.72 0.28 0  0.75 0.28 0  0.78 0.28 0  0.8100000000000001 0.28 0  0.84 0.28 0  0.87 0.28 0  0.9 0.28 0  0.93 0.28 0  0.96 0.28 0  0.99 0.28 0  1.02 0.28
[...]
<PointData  Scalars="ControlVisualisation"> 
<DataArray  type="Float64"  Name="ControlVisualisation"  format="ascii">6.8169694452660495e-02  3.7383478811196968e-02  3.7509994181211620e-02  3.7776566147956728e-02  3.8194818827751220e-02  3.8715812701030916e-02  3.9263261882309997e-02  3.9773653591641478e-02  4.0212747081718000e-02  4.0569073357486565e-02  4.0840273992136827e-02  4.1026225537001235e-02  4.1132001669722362e-02  4.1171780380432677e-02  4.1165467897516086e-02  4.1131413244983123e-02  4.1082481454120426e-02  4.1026745534480921e-02  4.0969765580280273e-02  4.0915826460704907e-02  4.0867867031858615e-02  4.0827465988731854e-02  4.0795556308672487e-02  4.0773156844936237e-02  4.0761383576307278e-02  4.0760900974928099e-02  4.0771483690863239e-02  4.0792141444776081e-02  4.0821700133451044e-02  4.0859305577051197e-02  4.0904418367699077e-02  4.0956340306606692e-02  4.1013500775986547e-02  4.1072743598526806e-02  4.1128957565605667e-02  4.1174315140437956e-02  4.1195450082200893e-02  4.1171629444778785e-02  4.1081092417912080e-02  4.0912065776314580e-02  4.0664678958277078e-02  4.0342510130372392e-02  3.9946667880412651e-02  3.9479864936955378e-02  3.8957908314702583e-02  3.8424689321481673e-02  3.7953082202151642e-02  3.7613627418468534e-02  3.7428863478837032e-02  3.7354795152009762e-02  1.6972300179818312e-01  3.7362907165859563e-02  1.4335257520064905e-02  1.4483261300165771e-02  1.4825006852851860e-02  1.5427610574507075e-02  1.6274548259137996e-02  1.7269855159179379e-02  1.8283941081946621e-02  1.9209761353081736e-02  1.9992511854150401e-02  2.0625121884520821e-02  2.1122833100868800e-02  2.1498574801976908e-02  2.1754136461070467e-02  2.1887628166460595e-02  2.1908805826530563e-02  2.1847417322939981e-02  2.1744607867210969e-02  2.1636127093767971e-02  2.1542246267546604e-02  2.1468516956204768e-02  2.1412667904905425e-02  2.1371497417614384e-02  2.1343949315423882e-02  2.1330314772126366e-02  2.1330151937053919e-02  2.1341509223219660e-02  2.1362421185326580e-02  2.1393839996579421e-02  2.1441513905832849e-02  2.1513802247370740e-02  2.1614345741325529e-02  2.1732379323777348e-02  2.1838395641637587e-02  2.1895302121141887e-02  2.1883009787811790e-02  2.1809529873524913e-02  2.1686758440845791e-02  2.1495910026106999e-02  2.1185556142046508e-02  2.0706244532866000e-02  2.0045886137943739e-02  1.9233531746193841e-02  1.8316419798064733e-02  1.7340806785505737e-02  1.6369022997890899e-02  1.5505466780600392e-02  1.4865560520391362e-02  1.4496988611295496e-02  1.4340152678973164e-02  3.7350682097800514e-02  3.7399442647937556e-02  1.4370750256590466e-02  1.4566978831548984e-02  1.5032645807155347e-02  1.5838977778746634e-02  1.6975473624870244e-02  1.8333294388716642e-02  1.9733359385363067e-02  2.0999864215186181e-02  2.2037391045479714e-02  2.2860198830658582e-02  2.3548361748269520e-02  2.4162813504805328e-02  2.4691509155513561e-02  2.5070982743008882e-02  2.5258249998993461e-02  2.5280003005215601e-02  2.5214613286198992e-02  2.5138529585052298e-02  2.5091458587127149e-02  2.5076863758955362e-02  2.5081588219716816e-02  2.5093621928049453e-02  2.5107939931184972e-02  2.5123000256071379e-02  2.5135835678572277e-02  2.5141055452490041e-02  2.5134537093698672e-02  2.5119911867687972e-02  2.5113391449874678e-02  2.5140209128535672e-02  2.5218151879029448e-02  2.5331995246609007e-02  2.5416873393476494e-02  2.5381875655624560e-02  2.5181932457646862e-02  2.4872175804247026e-02  2.4559960672356662e-02  2.4282539970177791e-02  2.3941797238830546e-02  2.3377984493587120e-02  2.2503913169263590e-02  2.1356195094774856e-02  2.0040325504380792e-02  1.8657942954569288e-02  1.7292320620049151e-02  1.6066600182902832e-02  1.5137289500933203e-02  1.4592673387907422e-02  1.4379579357323716e-02  3.7380099364796221e-02  3.7442797893889074e-02  1.4447766639800984e-02  1.4845478040515142e-02  1.5682582633969148e-02  1.6986331245391215e-02  1.8695467791429179e-02  2.0630535318700793e-02  2.2541196761102486e-02  2.4179904447148015e-02  2.5403287315061931e-02  2.6252497371061986e-02  2.6901656300639024e-02  2.7495419391194376e-02  2.8035201639385318e-02  2.8415942947432007e-02  2.8559538820434494e-02  2.8502324588279712e-02  2.8359788061433383e-02  2.8235769075109343e-02  2.8172456975191482e-02  2.8160065561044278e-02  2.8171952157963281e-02  2.8190303551067802e-02  2.8210267096103497e-02  2.8231246056081488e-02  2.8249115638322345e-02  2.8255482738647281e-02  2.8242975080232588e-02  2.8214247180119265e-02  2.8190480109535565e-02  2.8210396982906089e-02  2.8310441484828600e-02  2.8485909838637191e-02  2.8654367333526776e-02  2.8676202145195465e-02  2.8468351699387121e-02  2.8116644879282518e-02  2.7818318653383953e-02  2.7668441184300299e-02  2.7516497099995443e-02  2.7075047389939072e-02  2.6161065392857286e-02  2.4775262076420952e-02  2.3039499923354981e-02  2.1145138632306854e-02  1.9207859224651666e-02  1.7382901882272733e-02  1.5876706117216775e-02  1.4884303449342051e-02  1.4451321692982882e-02  3.7423769009185426e-02  3.7478152694351702e-02  1.4615301491521758e-02  1.5353877222551826e-02  1.6618668217017317e-02  1.8571893084674419e-02  2.1223313616609021e-02  2.4098224939529719e-02  2.6629923232052863e-02  2.8571806112509673e-02  2.9886248444795649e-02  3.0656836552657940e-02  3.1122809091421483e-02  3.1512190695500250e-02  3.1846208768259110e-02  3.1987523904206824e-02  3.1846903622008677e-02  3.1503016209442333e-02  3.1127801562101931e-02  3.0849020026656612e-02  3.0695282020485049e-02  3.0628336910772325e-02  3.0600386289659734e-02  3.0587065704608535e-02  3.0585523429453115e-02  3.0597210832370214e-02  3.0616845537281306e-02  3.0632636300096341e-02  3.0632910045651246e-02  3.0616916043982520e-02  3.0608025377537956e-02  3.0658885429075924e-02  3.0832535703656891e-02  3.1151133222372132e-02  3.1529168734733409e-02  3.1774499821158222e-02  3.1744239701865712e-02  3.1539171144805811e-02  3.1449402649307442e-02  3.1650229697347251e-02  3.1959845552066032e-02  3.1952304164597323e-02  3.1235156880203910e-02  2.9564238360899053e-02  2.7110976800524558e-02  2.4411256284475560e-02  2.1697343279149156e-02  1.9301234573225030e-02  1.7240364095624884e-02  1.5572889975560056e-02  1.4578418372455618e-02  3.7462874070894450e-02  3.7618937097080585e-02  1.5077602713563426e-02  1.6677922994494082e-02  1.9121518711130617e-02  2.1007286556733368e-02  2.3960457029076010e-02  2.8393043517166330e-02  3.2518398273573321e-02  3.4921155726535258e-02  3.5796732306012449e-02  3.6007818169840458e-02  3.6108193671097175e-02  3.6212061350358385e-02  3.6213983956824181e-02  3.5906087895911348e-02  3.5224822969147432e-02  3.4353839622889598e-02  3.3561051933310979e-02  3.2999898416700299e-02  3.2667545695337308e-02  3.2480302962745358e-02  3.2360685893875252e-02  3.2276339364395695e-02  3.2227142944111511e-02  3.2215961342168475e-02  3.2234835280964880e-02  3.2267869660783779e-02  3.2298926658774790e-02  3.2322749393481814e-02  3.2363341125037734e-02  3.2488374618058660e-02  3.2796459745456530e-02  3.3354516376598642e-02  3.4086562780421964e-02  3.4737476424527153e-02  3.5075237879807444e-02  3.5192501600315104e-02  3.5490808879966459e-02  3.6356856154347653e-02  3.7656695566468584e-02  3.8487405680747669e-02  3.7772703380552497e-02  3.5420332149632361e-02  3.1964171129606839e-02  2.8906630157351440e-02  2.6523522895884860e-02  2.3568298554703410e-02  1.9182607313915037e-02  1.6497395815918067e-02  1.4936495628165368e-02  3.7491889219303465e-02  3.8994141169909569e-02  1.7918347044756866e-02  2.9461580946276808e-02  5.3936488390164586e-02  6.7451632212997659e-02  6.0940130488607816e-02  4.9245011089101953e-02  4.4433676826705154e-02  4.4874203749209890e-02  4.4776674449077417e-02  4.3489314278363764e-02  4.2236122583438229e-02  4.1777550950965511e-02  4.1482186777835023e-02  4.0673546110581868e-02  3.9248493339520990e-02  3.7595458343604712e-02  3.6165423334415692e-02  3.5160448615457293e-02  3.4532521400262375e-02  3.4133429982739702e-02  3.3848382065497423e-02  3.3638012917999852e-02  3.3505773809168513e-02  3.3453407925349427e-02  3.3466993822851121e-02  3.3525707672018706e-02  3.3609999699948115e-02  3.3710325433404187e-02  3.3849847332596134e-02  3.4110940664679790e-02  3.4637410463863469e-02  3.5559133459314760e-02  3.6820071466959897e-02  3.8085336648621237e-02  3.9010857020908632e-02  3.9666619078812554e-02  4.0655807135958996e-02  4.2807964745683075e-02  4.5528300670853561e-02  4.6417260773652713e-02  4.5774344823712759e-02  4.4785809998323961e-02  4.6082832243147090e-02  5.5518491993945859e-02  6.7611716321391180e-02  7.2680181009714143e-02  5.6373727926714426e-02  3.0472495139961656e-02  1.7097227856412656e-02  3.7756099300693013e-02  4.2947735439387832e-02  4.4294479170745013e-02  1.0876167882579313e-01  1.4746774882953143e-01  1.5972788063516913e-01  1.4983095457101353e-01  1.2736291267735975e-01  9.6895030689109943e-02  7.1740030380294001e-02  6.0111409789792694e-02  5.4312996902628960e-02  5.1057320714100629e-02  4.9071712158753153e-02  4.7902511577076395e-02  4.6500654570055241e-02  4.4306358987947339e-02  4.1729416085710139e-02  3.9466578394822593e-02  3.7846319143293936e-02  3.6782162474803967e-02  3.6050066700726427e-02  3.5496554281808812e-02  3.5081684556869414e-02  3.4816399571710413e-02  3.4696798753233310e-02  3.4697139626439305e-02  3.4790596441104979e-02  3.4956596115626279e-02  3.5182735904433340e-02  3.5489115529987583e-02  3.5969988639847086e-02  3.6818578546742378e-02  3.8241736672170609e-02  4.0234980647124746e-02  4.2380470321119107e-02  4.4265475876344759e-02  4.5789108295270872e-02  4.7590376568051915e-02  5.1016283558088432e-02  5.4162378906256803e-02  5.7387825146858751e-02  6.3845252164618241e-02  7.4225568361007327e-02  9.9507141475765684e-02  1.2661992887661366e-01  1.4439469065246885e-01  1.5553553753415011e-01  1.4276335094721146e-01  1.3334046929187798e-01  4.7963375465115900e-02  4.0407547435654056e-02  7.4266963925317606e-02  1.2236061701254880e-01  2.6807815044807193e-01  3.2193945714067518e-01  3.0776788629230362e-01  2.7210646083702250e-01  2.2890581838078727e-01  1.8653232511126658e-01  1.4252808570307290e-01  1.0195351374428961e-01  7.3905359529225639e-02  6.1740995190448775e-02  5.9167555621951556e-02  5.7453123441258927e-02  5.4292465495851858e-02  5.0451386259752526e-02  4.6772103318441685e-02  4.3688714664383774e-02  4.1431503816019941e-02  3.9845506239955961e-02  3.8675468583121847e-02  3.7738429433699275e-02  3.7021429504903697e-02  3.6559035007817264e-02  3.6338186307485393e-02  3.6312921682352242e-02  3.6448532067795525e-02  3.6725416094999658e-02  3.7128012888216447e-02  3.7668315368195607e-02  3.8444227943025197e-02  3.9693825976764144e-02  4.1766315523423289e-02  4.4924604121469577e-02  4.8619212824008787e-02  5.1899023285969598e-02  5.3731084417834071e-02  5.4975567344934403e-02  5.8544901622112788e-02  6.6010809189551892e-02  8.3079366253677928e-02  1.0627318491875143e-01  1.4376109023018585e-01  1.8332036659395165e-01  2.2682767879613303e-01  2.7167422990737694e-01  3.0677801191761722e-01  3.1632384828296506e-01  2.6288567357442078e-01  1.6537870916010272e-01  7.3660200881802654e-02  4.5047354679262375e-01  4.4162609732203506e-01  5.2157890932116979e-01  5.0925264123053549e-01  4.7096624636005635e-01  4.0351070451225024e-01  3.3669279384556394e-01  2.8025622757620572e-01  2.3313122013384047e-01  1.8366813682903593e-01  1.3331153959007158e-01  9.1699751043896049e-02  7.1581354971855859e-02  6.9117185459517810e-02  6.5792160572896455e-02  6.0310807482303275e-02  5.3367078009982541e-02  4.8552658139522309e-02  4.5704841513952002e-02  4.3774925338358139e-02  4.2216155571587186e-02  4.0858279944947090e-02  3.9772911173556996e-02  3.9063817076803495e-02  3.8713750408675265e-02  3.8649120983729579e-02  3.8826740003480867e-02  3.9230346093956439e-02  3.9838144006792947e-02  4.0650333099777794e-02  4.1775859958391490e-02  4.3566760368504903e-02  4.6955509620456456e-02  5.3013707275997357e-02  5.8788115417702083e-02  6.1705898576377358e-02  6.2594074238484190e-02  6.2947478419267622e-02  7.1782759766090221e-02  9.6906295939736362e-02  1.3448818935602563e-01  1.8401321165179066e-01  2.3138956178749773e-01  2.8091945225483578e-01  3.3572097991011890e-01  4.0093167217822157e-01  4.5920166489015141e-01  4.9229627041781854e-01  4.9534433894780183e-01  5.0300495767209663e-01  3.5640145330367184e-01  8.7892273165400026e-01  8.9627960566991538e-01  7.8668012077503646e-01  6.7590838325527436e-01  6.0669042041223520e-01  5.3705089390816430e-01  4.5763763334049062e-01  3.8544947337209368e-01  3.2204304890948915e-01  2.6536356188116794e-01  2.1214727147839713e-01  1.6144066074289243e-01  1.1573005592344787e-01  8.4935750372920199e-02  7.8600167482727024e-02  6.8662745084410726e-02  6.3384703311785653e-02  5.6798475674890755e-02  5.2040758482267302e-02  4.9230088063514671e-02  4.7080256474002158e-02  4.5173285998116028e-02  4.3645261765913532e-02  4.2669476818921734e-02  4.2197759918117222e-02  4.2113508525950222e-02  4.2376795774733661e-02  4.2999861175724172e-02  4.3973058951651905e-02  4.5276367713402613e-02  4.6983199813564136e-02  4.9565865744916365e-02  5.4693968098442750e-02  6.0106031892180792e-02  5.7112324479998658e-02  6.6539524146352044e-02  8.1170145427638826e-02  8.6082663387875097e-02  1.1979793654338264e-01  1.6070955698465553e-01  2.1257226171485522e-01  2.6903975966862981e-01  3.2590196934052751e-01  3.9264606307128114e-01  4.6892062909935406e-01  5.3555771241980976e-01  6.0297614264283372e-01  6.8944556553291514e-01  7.9104662383137248e-01  9.1453180724923877e-01  8.3110240824976389e-01  9.7115950589245115e-01  9.8110545736182042e-01  9.4937869695515043e-01  8.3434859171273279e-01  7.2310540867713069e-01  6.3681608244692345e-01  5.6605119914478230e-01  4.9317864085001550e-01  4.2610339778707629e-01  3.6403992002041230e-01  2.9624301563698130e-01  2.3260183085414013e-01  1.8566541835033101e-01  1.3571895006329737e-01  1.0062728879474037e-01  9.1594413290940119e-02  7.5434384941312563e-02  6.4416311860671524e-02  5.8563625779602835e-02  5.5909939053018290e-02  5.3615581613481553e-02  5.1038328219884688e-02  4.8946414031887264e-02  4.7656829506379797e-02  4.7050569770276052e-02  4.6954006584707803e-02  4.7343654344285682e-02  4.8230681198954281e-02  4.9512641415362019e-02  5.1027036774211415e-02  5.2803623379733447e-02  5.5515920686308437e-02  6.0972706900895693e-02  6.7329632395336805e-02  7.8958348551502258e-02  1.5359716374155011e-01  9.6734139948546405e-02  1.4360256732665683e-01  1.8049937367299065e-01  2.3504442721599655e-01  3.0117288058464858e-01  3.6096226280166582e-01  4.2808358625121390e-01  5.0331998005681600e-01  5.7036658150468456e-01  6.4152960756460253e-01  7.3148645042575089e-01  8.4310237868811877e-01  9.5747086198259435e-01  9.8168663419558544e-01  9.6283308506040444e-01  9.8191927607843044e-01  9.9118119974549734e-01  9.7729385940099822e-01  9.3617883649865252e-01  8.2216580616151236e-01  7.1844285583061551e-01  6.4038120400663168e-01  5.7685818279173096e-01  5.1325753818834030e-01  4.5615482462915563e-01  4.0237848433439327e-01  3.3380167319426279e-01  2.5867861834102018e-01  2.1145998709065714e-01  1.6295831046009573e-01  1.1997754643469243e-01  9.2345788288671127e-02  7.6891821973864724e-02  7.0555941357875115e-02  6.6299342249908522e-02  6.1395887249536665e-02  5.6967019625217552e-02  5.3752816047485816e-02  5.2113135105437317e-02  5.1453850186843619e-02  5.1366450691197996e-02  5.1876391222240581e-02  5.3054757382950013e-02  5.4738664444993979e-02  5.6657876160901857e-02  5.8906166696259823e-02  6.2775082697372489e-02  7.0656595295587724e-02  8.5773145483404631e-02  1.0657006973561262e-01  1.1416015833897623e-01  1.5122336671683559e-01  2.0999573336468685e-01  2.6666724110586260e-01  3.3153152505626254e-01  3.8856973629427632e-01  4.5151837753429136e-01  5.1923122130601163e-01  5.8132977400950869e-01  6.4582786964612471e-01  7.2401807902315185e-01  8.2436303004009370e-01  9.4197486683429199e-01  9.7878934054628253e-01  9.9084508035619179e-01  9.7997226380098534e-01  9.8055544453991916e-01  9.9210538580582819e-01  9.8233333474176754e-01  9.5508648549760000e-01  8.8483902117873747e-01  7.8073663614233779e-01  6.9778637935908427e-01  6.3345011180625443e-01  5.7767215514911618e-01  5.2216094875573271e-01  4.7394372969650866e-01  4.3135257868676413e-01  3.7263624184953215e-01  2.9554694645984436e-01  2.3998610773074722e-01  2.0156511132595051e-01  1.6488220120991526e-01  1.3946365853988604e-01  1.1063017844512418e-01  9.0893565751951982e-02  8.2662063134796418e-02  7.5978545559443070e-02  6.9996885870290765e-02  6.6464841327816923e-02  6.5066717207827834e-02  6.4886312083254377e-02  6.5661799549633595e-02  6.7646487811201361e-02  7.1042686147380435e-02  7.5780083238469437e-02  8.2290131359536334e-02  9.3009255106689712e-02  1.1114850117346814e-01  1.3590023427929979e-01  1.6310467393924974e-01  1.9823730224891484e-01  2.4674247671843408e-01  3.0765371709642392e-01  3.6072494749954104e-01  4.1177699228267695e-01  4.6944527936424574e-01  5.2708875053747928e-01  5.8150534169588275e-01  6.3755949543572543e-01  7.0249718085403490e-01  7.8223065610148501e-01  8.8865350825329437e-01  9.5627241955597753e-01  9.8148049044062069e-01  9.9174445660352761e-01  9.8197489353949696e-01  9.6393136409150770e-01  9.8513254640806913e-01  9.7315335126078895e-01  9.4665590239119335e-01  8.9416206798284459e-01  8.1363782294555098e-01  7.3743356665550719e-01  6.7574709272378564e-01  6.2393615419825732e-01  5.7558666532663605e-01  5.2715734819023607e-01  4.8513945401607944e-01  4.5059636128278152e-01  4.0605073440616601e-01  3.4158255161203066e-01  2.8162877783977880e-01  2.4109234120609130e-01  2.0980184182057260e-01  1.8778169270997308e-01  1.7225998060529696e-01  1.5892825994075238e-01  1.4874713438486742e-01  1.4220865584825221e-01  1.3740451725170458e-01  1.3426398935356423e-01  1.3315316244580128e-01  1.3396047408837111e-01  1.3652557064674387e-01  1.4105935243249626e-01  1.4806091917004890e-01  1.5787207318308513e-01  1.7065669066645756e-01  1.8731590973410434e-01  2.0950117240580091e-01  2.4009381399317764e-01  2.8576423558041680e-01  3.3992586527851393e-01  3.8645909797111677e-01  4.3304148095881689e-01  4.8409361181970001e-01  5.3269465103283520e-01  5.7913117435941708e-01  6.2659453708273560e-01  6.7895200448754189e-01  7.3971993134680880e-01  8.1647422855511675e-01  8.9516450023434346e-01  9.4447840508269343e-01  9.7101476413166188e-01  9.8514956567411138e-01  9.7212407444544346e-01  8.2797879801491159e-01  9.4924039148660699e-01  9.2543596459135302e-01  8.9935132502245618e-01  8.6007560093924595e-01  8.0909460197345762e-01  7.5339078106326629e-01  7.0254991599201133e-01  6.5776385114584301e-01  6.1674010550410108e-01  5.7648881569895838e-01  5.3537392638157200e-01  4.9783497622748646e-01  4.6730003946844212e-01  4.3446826414133871e-01  3.8936967994309002e-01  3.4156014450150812e-01  3.0397337965260263e-01  2.7684627901084202e-01  2.5726373913602052e-01  2.4304726810160368e-01  2.3206259807137303e-01  2.2298180158667852e-01  2.1601763660195752e-01  2.1202341885092785e-01  2.1098134524893766e-01  2.1232669939321019e-01  2.1601412483013999e-01  2.2235644065152121e-01  2.3164199863264626e-01  2.4418940981227177e-01  2.5970506869888965e-01  2.7802890425533217e-01  3.0224327105150406e-01  3.3525957232101483e-01  3.7334184396956155e-01  4.1314763771338253e-01  4.5609587904612442e-01  4.9927463466869004e-01  5.3980274369918702e-01  5.7831944547302128e-01  6.1710569387737346e-01  6.5908811337390438e-01  7.0516078727063292e-01  7.5682204820171184e-01  8.1103954723040184e-01  8.5696350084875050e-01  8.9485357984330949e-01  9.2967185166890876e-01  9.4746261347517824e-01  8.8579010718567519e-01  3.6653970678471015e-01  6.3739902834173734e-01  7.2959575094645646e-01  7.6803743854263073e-01  7.7995799050627246e-01  7.6982131831095535e-01  7.4510661193125127e-01  7.1217616041220755e-01  6.7791438481240718e-01  6.4513153519514244e-01  6.1416411817623207e-01  5.8335019435956992e-01  5.509710359