<?xml version="1.0"?>
<VTKFile type="UnstructuredGrid"  version="0.1"  >
<UnstructuredGrid>
<Piece  NumberOfPoints="2601" NumberOfCells="5000">
<Points>
<DataArray  type="Float64"  NumberOfComponents="3"  format="ascii">0 0 0  0.03 0 0  0.06 0 0  0.09 0 0  0.12 0 0  0.15 0 0  0.18 0 0  0.21 0 0  0.24 0 0  0.27 0 0  0.3 0 0  0.33 0 0  0.36 0 0  0.39 0 0  0.42 0 0  0.45 0 0  0.48 0 0  0.51 0 0  0.54 0 0  0.57 0 0  0.6 0 0  0.63 0 0  0.66 0 0  0.6899999999999999 0 0  0.72 0 0  0.75 0 0  0.78 0 0  0.8100000000000001 0 0  0.84 0 0  0.87 0 0  0.9 0 0  0.93 0 0  0.96 0 0  0.99 0 0  1.02 0 0  1.05 0 0  1.08 0 0  1.11 0 0  1.14 0 0  1.17 0 0  1.2 0 0  1.23 0 0  1.26 0 0  1.29 0 0  1.32 0 0  1.35 0 0  1.38 0 0  1.41 0 0  1.44 0 0  1.47 0 0  1.5 0 0  0 0.02 0  0.03 0.02 0  0.06 0.02 0  0.09 0.02 0  0.12 0.02 0  0.15 0.02 0  0.18 0.02 0  0.21 0.02 0  0.24 0.02 0  0.27 0.02 0  0.3 0.02 0  0.33 0.02 0  0.36 0.02 0  0.39 0.02 0  0.42 0.02 0  0.45 0.02 0  0.48 0.02 0  0.51 0.02 0  0.54 0.02 0  0.57 0.02 0  0.6 0.02 0  0.63 0.02 0  0.66 0.02 0  0.6899999999999999 0.02 0  0.72 0.02 0  0.75 0.02 0  0.78 0.02 0  0.8100000000000001 0.02 0  0.84 0.02 0  0.87 0.02 0  0.9 0.02 0  0.93 0.02 0  0.96 0.02 0  0.99 0.02 0  1.02 0.02 0  1.05 0.02 0  1.08 0.02 0  1.11 0.02 0  1.14 0.02 0  1.17 0.02 0  1.2 0.02 0  1.23 0.02 0  1.26 0.02 0  1.29 0.02 0  1.32 0.02 0  1.35 0.02 0  1.38 0.02 0  1.41 0.02 0  1.44 0.02 0  1.47 0.02 0  1.5 0.02 0  0 0.04 0  0.03 0.04 0  0.06 0.04 0  0.09 0.04 0  0.12 0.04 0  0.15 0.04 0  0.18 0.04 0  0.21 0.04 0  0.24 0.04 0  0.27 0.04 0  0.3 0.04 0  0.33 0.04 0  0.36 0.04 0  0.39 0.04 0  0.42 0.04 0  0.45 0.04 0  0.48 0.04 0  0.51 0.04 0  0.54 0.04 0  0.57 0.04 0  0.6 0.04 0  0.63 0.04 0  0.66 0.04 0  0.6899999999999999 0.04 0  0.72 0.04 0  0.75 0.04 0  0.78 0.04 0  0.8100000000000001 0.04 0  0.84 0.04 0  0.87 0.04 0  0.9 0.04 0  0.93 0.04 0  0.96 0.04 0  0.99 0.04 0  1.02 0.04 0  1.05 0.04 0  1.08 0.04 0  1.11 0.04 0  1.14 0.04 0  1.17 0.04 0  1.2 0.04 0  1.23 0.04 0  1.26 0.04 0  1.29 0.04 0  1.32 0.04 0  1.35 0.04 0  1.38 0.04 0  1.41 0.04 0  1.44 0.04 0  1.47 0.04 0  1.5 0.04 0  0 0.06 0  0.03 0.06 0  0.06 0.06 0  0.09 0.06 0  0.12 0.06 0  0.15 0.06 0  0.18 0.06 0  0.21 0.06 0  0.24 0.06 0  0.27 0.06 0  0.3 0.06 0  0.33 0.06 0  0.36 0.06 0  0.39 0.06 0  0.42 0.06 0  0.45 0.06 0  0.48 0.06 0  0.51 0.06 0  0.54 0.06 0  0.57 0.06 0  0.6 0.06 0  0.63 0.06 0  0.66 0.06 0  0.6899999999999999 0.06 0  0.72 0.06 0  0.75 0.06 0  0.78 0.06 0  0.8100000000000001 0.06 0  0.84 0.06 0  0.87 0.06 0  0.9 0.06 0  0.93 0.06 0  0.96 0.06 0  0.99 0.06 0  1.02 0.06 0  1.05 0.06 0  1.08 0.06 0  1.11 0.06 0  1.14 0.06 0  1.17 0.06 0  1.2 0.06 0  1.23 0.06 0  1.26 0.06 0  1.29 0.06 0  1.32 0.06 0  1.35 0.06 0  1.38 0.06 0  1.41 0.06 0  1.44 0.06 0  1.47 0.06 0  1.5 0.06 0  0 0.08 0  0.03 0.08 0  0.06 0.08 0  0.09 0.08 0  0.12 0.08 0  0.15 0.08 0  0.18 0.08 0  0.21 0.08 0  0.24 0.08 0  0.27 0.08 0  0.3 0.08 0  0.33 0.08 0  0.36 0.08 0  0.39 0.08 0  0.42 0.08 0  0.45 0.08 0  0.48 0.08 0  0.51 0.08 0  0.54 0.08 0  0.57 0.08 0  0.6 0.08 0  0.63 0.08 0  0.66 0.08 0  0.6899999999999999 0.08 0  0.72 0.08 0  0.75 0.08 0  0.78 0.08 0  0.8100000000000001 0.08 0  0.84 0.08 0  0.87 0.08 0  0.9 0.08 0  0.93 0.08 0  0.96 0.08 0  0.99 0.08 0  1.02 0.08 0  1.05 0.08 0  1.08 0.08 0  1.11 0.08 0  1.14 0.08 0  1.17 0.08 0  1.2 0.08 0  1.23 0.08 0  1.26 0.08 0  1.29 0.08 0  1.32 0.08 0  1.35 0.08 0  1.38 0.08 0  1.41 0.08 0  1.44 0.08 0  1.47 0.08 0  1.5 0.08 0  0 0.1 0  0.03 0.1 0  0.06 0.1 0  0.09 0.1 0  0.12 0.1 0  0.15 0.1 0  0.18 0.1 0  0.21 0.1 0  0.24 0.1 0  0.27 0.1 0  0.3 0.1 0  0.33 0.1 0  0.36 0.1 0  0.39 0.1 0  0.42 0.1 0  0.45 0.1 0  0.48 0.1 0  0.51 0.1 0  0.54 0.1 0  0.57 0.1 0  0.6 0.1 0  0.63 0.1 0  0.66 0.1 0  0.6899999999999999 0.1 0  0.72 0.1 0  0.75 0.1 0  0.78 0.1 0  0.8100000000000001 0.1 0  0.84 0.1 0  0.87 0.1 0  0.9 0.1 0  0.93 0.1 0  0.96 0.1 0  0.99 0.1 0  1.02 0.1 0  1.05 0.1 0  1.08 0.1 0  1.11 0.1 0  1.14 0.1 0  1.17 0.1 0  1.2 0.1 0  1.23 0.1 0  1.26 0.1 0  1.29 0.1 0  1.32 0.1 0  1.35 0.1 0  1.38 0.1 0  1.41 0.1 0  1.44 0.1 0  1.47 0.1 0  1.5 0.1 0  0 0.12 0  0.03 0.12 0  0.06 0.12 0  0.09 0.12 0  0.12 0.12 0  0.15 0.12 0  0.18 0.12 0  0.21 0.12 0  0.24 0.12 0  0.27 0.12 0  0.3 0.12 0  0.33 0.12 0  0.36 0.12 0  0.39 0.12 0  0.42 0.12 0  0.45 0.12 0  0.48 0.12 0  0.51 0.12 0  0.54 0.12 0  0.57 0.12 0  0.6 0.12 0  0.63 0.12 0  0.66 0.12 0  0.6899999999999999 0.12 0  0.72 0.12 0  0.75 0.12 0  0.78 0.12 0  0.8100000000000001 0.12 0  0.84 0.12 0  0.87 0.12 0  0.9 0.12 0  0.93 0.12 0  0.96 0.12 0  0.99 0.12 0  1.02 0.12 0  1.05 0.12 0  1.08 0.12 0  1.11 0.12 0  1.14 0.12 0  1.17 0.12 0  1.2 0.12 0  1.23 0.12 0  1.26 0.12 0  1.29 0.12 0  1.32 0.12 0  1.35 0.12 0  1.38 0.12 0  1.41 0.12 0  1.44 0.12 0  1.47 0.12 0  1.5 0.12 0  0 0.14 0  0.03 0.14 0  0.06 0.14 0  0.09 0.14 0  0.12 0.14 0  0.15 0.14 0  0.18 0.14 0  0.21 0.14 0  0.24 0.14 0  0.27 0.14 0  0.3 0.14 0  0.33 0.14 0  0.36 0.14 0  0.39 0.14 0  0.42 0.14 0  0.45 0.14 0  0.48 0.14 0  0.51 0.14 0  0.54 0.14 0  0.57 0.14 0  0.6 0.14 0  0.63 0.14 0  0.66 0.14 0  0.6899999999999999 0.14 0  0.72 0.14 0  0.75 0.14 0  0.78 0.14 0  0.8100000000000001 0.14 0  0.84 0.14 0  0.87 0.14 0  0.9 0.14 0  0.93 0.14 0  0.96 0.14 0  0.99 0.14 0  1.02 0.14 0  1.05 0.14 0  1.08 0.14 0  1.11 0.14 0  1.14 0.14 0  1.17 0.14 0  1.2 0.14 0  1.23 0.14 0  1.26 0.14 0  1.29 0.14 0  1.32 0.14 0  1.35 0.14 0  1.38 0.14 0  1.41 0.14 0  1.44 0.14 0  1.47 0.14 0  1.5 0.14 0  0 0.16 0  0.03 0.16 0  0.06 0.16 0  0.09 0.16 0  0.12 0.16 0  0.15 0.16 0  0.18 0.16 0  0.21 0.16 0  0.24 0.16 0  0.27 0.16 0  0.3 0.16 0  0.33 0.16 0  0.36 0.16 0  0.39 0.16 0  0.42 0.16 0  0.45 0.16 0  0.48 0.16 0  0.51 0.16 0  0.54 0.16 0  0.57 0.16 0  0.6 0.16 0  0.63 0.16 0  0.66 0.16 0  0.6899999999999999 0.16 0  0.72 0.16 0  0.75 0.16 0  0.78 0.16 0  0.8100000000000001 0.16 0  0.84 0.16 0  0.87 0.16 0  0.9 0.16 0  0.93 0.16 0  0.96 0.16 0  0.99 0.16 0  1.02 0.16 0  1.05 0.16 0  1.08 0.16 0  1.11 0.16 0  1.14 0.16 0  1.17 0.16 0  1.2 0.16 0  1.23 0.16 0  1.26 0.16 0  1.29 0.16 0  1.32 0.16 0  1.35 0.16 0  1.38 0.16 0  1.41 0.16 0  1.44 0.16 0  1.47 0.16 0  1.5 0.16 0  0 0.18 0  0.03 0.18 0  0.06 0.18 0  0.09 0.18 0  0.12 0.18 0  0.15 0.18 0  0.18 0.18 0  0.21 0.18 0  0.24 0.18 0  0.27 0.18 0  0.3 0.18 0  0.33 0.18 0  0.36 0.18 0  0.39 0.18 0  0.42 0.18 0  0.45 0.18 0  0.48 0.18 0  0.51 0.18 0  0.54 0.18 0  0.57 0.18 0  0.6 0.18 0  0.63 0.18 0  0.66 0.18 0  0.6899999999999999 0.18 0  0.72 0.18 0  0.75 0.18 0  0.78 0.18 0  0.8100000000000001 0.18 0  0.84 0.18 0  0.87 0.18 0  0.9 0.18 0  0.93 0.18 0  0.96 0.18 0  0.99 0.18 0  1.02 0.18 0  1.05 0.18 0  1.08 0.18 0  1.11 0.18 0  1.14 0.18 0  1.17 0.18 0  1.2 0.18 0  1.23 0.18 0  1.26 0.18 0  1.29 0.18 0  1.32 0.18 0  1.35 0.18 0  1.38 0.18 0  1.41 0.18 0  1.44 0.18 0  1.47 0.18 0  1.5 0.18 0  0 0.2 0  0.03 0.2 0  0.06 0.2 0  0.09 0.2 0  0.12 0.2 0  0.15 0.2 0  0.18 0.2 0  0.21 0.2 0  0.24 0.2 0  0.27 0.2 0  0.3 0.2 0  0.33 0.2 0  0.36 0.2 0  0.39 0.2 0  0.42 0.2 0  0.45 0.2 0  0.48 0.2 0  0.51 0.2 0  0.54 0.2 0  0.57 0.2 0  0.6 0.2 0  0.63 0.2 0  0.66 0.2 0  0.6899999999999999 0.2 0  0.72 0.2 0  0.75 0.2 0  0.78 0.2 0  0.8100000000000001 0.2 0  0.84 0.2 0  0.87 0.2 0  0.9 0.2 0  0.93 0.2 0  0.96 0.2 0  0.99 0.2 0  1.02 0.2 0  1.05 0.2 0  1.08 0.2 0  1.11 0.2 0  1.14 0.2 0  1.17 0.2 0  1.2 0.2 0  1.23 0.2 0  1.26 0.2 0  1.29 0.2 0  1.32 0.2 0  1.35 0.2 0  1.38 0.2 0  1.41 0.2 0  1.44 0.2 0  1.47 0.2 0  1.5 0.2 0  0 0.22 0  0.03 0.22 0  0.06 0.22 0  0.09 0.22 0  0.12 0.22 0  0.15 0.22 0  0.18 0.22 0  0.21 0.22 0  0.24 0.22 0  0.27 0.22 0  0.3 0.22 0  0.33 0.22 0  0.36 0.22 0  0.39 0.22 0  0.42 0.22 0  0.45 0.22 0  0.48 0.22 0  0.51 0.22 0  0.54 0.22 0  0.57 0.22 0  0.6 0.22 0  0.63 0.22 0  0.66 0.22 0  0.6899999999999999 0.22 0  0.72 0.22 0  0.75 0.22 0  0.78 0.22 0  0.8100000000000001 0.22 0  0.84 0.22 0  0.87 0.22 0  0.9 0.22 0  0.93 0.22 0  0.96 0.22 0  0.99 0.22 0  1.02 0.22 0  1.05 0.22 0  1.08 0.22 0  1.11 0.22 0  1.14 0.22 0  1.17 0.22 0  1.2 0.22 0  1.23 0.22 0  1.26 0.22 0  1.29 0.22 0  1.32 0.22 0  1.35 0.22 0  1.38 0.22 0  1.41 0.22 0  1.44 0.22 0  1.47 0.22 0  1.5 0.22 0  0 0.24 0  0.03 0.24 0  0.06 0.24 0  0.09 0.24 0  0.12 0.24 0  0.15 0.24 0  0.18 0.24 0  0.21 0.24 0  0.24 0.24 0  0.27 0.24 0  0.3 0.24 0  0.33 0.24 0  0.36 0.24 0  0.39 0.24 0  0.42 0.24 0  0.45 0.24 0  0.48 0.24 0  0.51 0.24 0  0.54 0.24 0  0.57 0.24 0  0.6 0.24 0  0.63 0.24 0  0.66 0.24 0  0.6899999999999999 0.24 0  0.72 0.24 0  0.75 0.24 0  0.78 0.24 0  0.8100000000000001 0.24 0  0.84 0.24 0  0.87 0.24 0  0.9 0.24 0  0.93 0.24 0  0.96 0.24 0  0.99 0.24 0  1.02 0.24 0  1.05 0.24 0  1.08 0.24 0  1.11 0.24 0  1.14 0.24 0  1.17 0.24 0  1.2 0.24 0  1.23 0.24 0  1.26 0.24 0  1.29 0.24 0  1.32 0.24 0  1.35 0.24 0  1.38 0.24 0  1.41 0.24 0  1.44 0.24 0  1.47 0.24 0  1.5 0.24 0  0 0.26 0  0.03 0.26 0  0.06 0.26 0  0.09 0.26 0  0.12 0.26 0  0.15 0.26 0  0.18 0.26 0  0.21 0.26 0  0.24 0.26 0  0.27 0.26 0  0.3 0.26 0  0.33 0.26 0  0.36 0.26 0  0.39 0.26 0  0.42 0.26 0  0.45 0.26 0  0.48 0.26 0  0.51 0.26 0  0.54 0.26 0  0.57 0.26 0  0.6 0.26 0  0.63 0.26 0  0.66 0.26 0  0.6899999999999999 0.26 0  0.72 0.26 0  0.75 0.26 0  0.78 0.26 0  0.8100000000000001 0.26 0  0.84 0.26 0  0.87 0.26 0  0.9 0.26 0  0.93 0.26 0  0.96 0.26 0  0.99 0.26 0  1.02 0.26 0  1.05 0.26 0  1.08 0.26 0  1.11 0.26 0  1.14 0.26 0  1.17 0.26 0  1.2 0.26 0  1.23 0.26 0  1.26 0.26 0  1.29 0.26 0  1.32 0.26 0  1.35 0.26 0  1.38 0.26 0  1.41 0.26 0  1.44 0.26 0  1.47 0.26 0  1.5 0.26 0  0 0.28 0  0.03 0.28 0  0.06 0.28 0  0.09 0.28 0  0.12 0.28 0  0.15 0.28 0  0.18 0.28 0  0.21 0.28 0  0.24 0.28 0  0.27 0.28 0  0.3 0.28 0  0.33 0.28 0  0.36 0.28 0  0.39 0.28 0  0.42 0.28 0  0.45 0.28 0  0.48 0.28 0  0.51 0.28 0  0.54 0.28 0  0.57 0.28 0  0.6 0.28 0  0.63 0.28 0  0.66 0.28 0  0.6899999999999999 0.28 0  0.72 0.28 0  0.75 0.28 0  0.78 0.28 0  0.8100000000000001 0.28 0  0.84 0.28 0  0.87 0.28 0  0.9 0.28 0  0.93 0.28 0  0.96 0.28 0  0.99 0.28 0  1.02 0.28
[...]
<PointData  Scalars="ControlVisualisation"> 
<DataArray  type="Float64"  Name="ControlVisualisation"  format="ascii">1.9137723215339151e-05  1.2768641765558993e-05  1.2816331237019769e-05  1.2914344295955072e-05  1.3065304991435206e-05  1.3253126165636562e-05  1.3451860865732004e-05  1.3636883814402822e-05  1.3791515377519823e-05  1.3908303649572486e-05  1.3986751908568092e-05  1.4030460864250308e-05  1.4045160335391565e-05  1.4037443344685013e-05  1.4013835401622136e-05  1.3980167157364514e-05  1.3941274451210841e-05  1.3900943735752297e-05  1.3861987194533686e-05  1.3826375190952530e-05  1.3795396815450886e-05  1.3769831994666666e-05  1.3750114995176813e-05  1.3736468953130253e-05  1.3729000220718495e-05  1.3727753858276040e-05  1.3732739359666459e-05  1.3743935080734166e-05  1.3761272775783339e-05  1.3784595462127293e-05  1.3813578436330084e-05  1.3847608240338817e-05  1.3885626196197746e-05  1.3925953908617404e-05  1.3966121899697371e-05  1.4002721658088812e-05  1.4031313747265664e-05  1.4046452028577711e-05  1.4041904605466900e-05  1.4011128687553867e-05  1.3947935688503319e-05  1.3847511378736721e-05  1.3708262282220367e-05  1.3534527675204402e-05  1.3339277413937956e-05  1.3143895057650893e-05  1.2974156768191808e-05  1.2852237229297253e-05  1.2784633053930081e-05  1.2758081642243034e-05  3.8280343242918964e-05  1.2761245858926034e-05  6.3871951139530459e-06  6.4333506649605954e-06  6.5359705603375847e-06  6.7048564148115004e-06  6.9294045119752645e-06  7.1834679896893007e-06  7.4357022066842506e-06  7.6591996937842906e-06  7.8370873218648943e-06  7.9627566430399128e-06  8.0373299666745988e-06  8.0670416053055240e-06  8.0609971905333103e-06  8.0291655805289537e-06  7.9808522036122384e-06  7.9238703865251998e-06  7.8642986720735094e-06  7.8065704908408397e-06  7.7537088659076537e-06  7.7076168922788106e-06  7.6693805839795133e-06  7.6395487493929521e-06  7.6183592846091436e-06  7.6058965555685461e-06  7.6021840430162398e-06  7.6072287558694632e-06  7.6210335902924081e-06  7.6435830548380439e-06  7.6747936304376955e-06  7.7144109809078624e-06  7.7618388854023232e-06  7.8158994764903510e-06  7.8745436569738648e-06  7.9345424353141517e-06  7.9911933910058921e-06  8.0381056243411673e-06  8.0671849249806164e-06  8.0690377463519020e-06  8.0339042970924800e-06  7.9530490873323027e-06  7.8205305666356237e-06  7.6358620843682714e-06  7.4069664257667699e-06  7.1526310120427237e-06  6.9007305670851779e-06  6.6814677547253923e-06  6.5198064539370847e-06  6.4251226606365124e-06  6.3845010832457897e-06  1.2756563455404863e-05  1.2775593135041288e-05  6.4017481826641608e-06  6.4615918467204104e-06  6.5922273831953801e-06  6.8028262332904401e-06  7.0786906735281801e-06  7.3893071298315624e-06  7.6973552429662649e-06  7.9700833002876288e-06  8.1869824710686971e-06  8.3395701574003381e-06  8.4283641878168289e-06  8.4605541976147406e-06  8.4475985555471157e-06  8.4024014397826187e-06  8.3370202089042996e-06  8.2614878726942948e-06  8.1835226077353475e-06  8.1086760233419005e-06  8.0406506538936269e-06  7.9816882054973308e-06  7.9329826005213408e-06  7.8950656503217350e-06  7.8681143682004958e-06  7.8521554002606904e-06  7.8471763237247991e-06  7.8531738830461970e-06  7.8701675430196064e-06  7.8981880985184111e-06  7.9372268439052886e-06  7.9871143196311388e-06  8.0473004337170288e-06  8.1165318777607623e-06  8.1924596041454359e-06  8.2712206027865850e-06  8.3470329729086559e-06  8.4118773770907573e-06  8.4554168380590897e-06  8.4655531916696939e-06  8.4296894808323148e-06  8.3369918178263249e-06  8.1801617183528251e-06  7.9585501154348090e-06  7.6810683524628175e-06  7.3702837007803343e-06  7.0609413596001544e-06  6.7876549963013532e-06  6.5795746524617732e-06  6.4534334194616517e-06  6.3984272095488150e-06  1.2766911171580189e-05  1.2789595690099053e-05  6.4226969313747777e-06  6.5063326229487004e-06  6.6699629645350796e-06  6.9099245694639557e-06  7.2050988722517992e-06  7.5258735345781662e-06  7.8334056471877737e-06  8.0965273603114358e-06  8.3000231086642133e-06  8.4387061818852406e-06  8.5136562820485688e-06  8.5321991541491781e-06  8.5064091481034991e-06  8.4498165599807917e-06  8.3747312477364943e-06  8.2911577710621863e-06  8.2067009127741971e-06  8.1267851873790739e-06  8.0549531905261190e-06  7.9932370524571955e-06  7.9425961863292895e-06  7.9033509191467755e-06  7.8755257580042986e-06  7.8590600236031334e-06  7.8539025871805591e-06  7.8600400192318564e-06  7.8775032045614166e-06  7.9063677132916211e-06  7.9467251719464513e-06  7.9985759450417403e-06  8.0615968444455427e-06  8.1347778252406471e-06  8.2159877753881884e-06  8.3015374034548807e-06  8.3857935809572703e-06  8.4608212048719380e-06  8.5161625746595073e-06  8.5392991593279074e-06  8.5171688834970595e-06  8.4395809895443381e-06  8.2983213154436692e-06  8.0904361944056994e-06  7.8212950528955038e-06  7.5083099725329632e-06  7.1884581942566803e-06  6.8948295106351292e-06  6.6532861354284544e-06  6.4912533894283211e-06  6.4150777669764009e-06  1.2781480648829929e-05  1.2787079385920536e-05  6.4486351281150634e-06  6.5963216046916522e-06  6.8313544399595239e-06  7.1093406643865274e-06  7.4165122939135027e-06  7.7394307155810990e-06  8.0304526719345615e-06  8.2649108087419861e-06  8.4396555730748518e-06  8.5529304233313354e-06  8.6044926785050513e-06  8.6011233422993184e-06  8.5558722591844659e-06  8.4830598300616321e-06  8.3949542553295600e-06  8.3011272472619732e-06  8.2087802159479552e-06  8.1230309040066961e-06  8.0471151558976919e-06  7.9826964374855120e-06  7.9303378785741711e-06  7.8900179775856447e-06  7.8615310573862575e-06  7.8446987761293075e-06  7.8394264295837835e-06  7.8456901451633556e-06  7.8635292372797422e-06  7.8930688313865816e-06  7.9345361405522581e-06  7.9881867485213393e-06  8.0540593162859235e-06  8.1315440760022304e-06  8.2188695112365071e-06  8.3126769345472125e-06  8.4077135227549856e-06  8.4963482930403264e-06  8.5682789522994766e-06  8.6105996569705183e-06  8.6102905000880595e-06  8.5572450434301064e-06  8.4435992118298862e-06  8.2648556694952139e-06  8.0269651524685060e-06  7.7244324145040576e-06  7.4030574872850121e-06  7.1027413298381206e-06  6.8159316755598177e-06  6.5722592036275846e-06  6.4291476307136212e-06  1.2786931259746213e-05  1.2790426343506590e-05  6.5187088346630223e-06  6.9624787452994347e-06  7.5785151442256566e-06  7.8721538462585867e-06  7.9977473198498340e-06  8.1624487976253202e-06  8.3421165271123755e-06  8.5022012546309034e-06  8.6280573520668511e-06  8.7058985388926105e-06  8.7252094960749409e-06  8.6910314039327654e-06  8.6187807614362850e-06  8.5241268127667424e-06  8.4188519063982044e-06  8.3116044381571106e-06  8.2089686614463544e-06  8.1156951887116195e-06  8.0346412566200864e-06  7.9669490870264560e-06  7.9125916291640469e-06  7.8710466983707322e-06  7.8417964721648664e-06  7.8245293064577523e-06  7.8191192062971491e-06  7.8255377603888504e-06  7.8438202880625857e-06  7.8741279969045584e-06  7.9168477288320918e-06  7.9725871328251185e-06  8.0419169621692757e-06  8.1248196834083292e-06  8.2200056052588964e-06  8.3245657048254505e-06  8.4336816586218403e-06  8.5403317476567972e-06  8.6351835053220349e-06  8.7040717079435144e-06  8.7331957532530840e-06  8.7087778945811375e-06  8.6504122316111176e-06  8.5361793106966222e-06  8.4151290275166694e-06  8.2620360378536212e-06  8.1446470098770701e-06  7.9794990199298189e-06  7.3990941652844192e-06  6.7792255574603274e-06  6.4511383109145442e-06  1.2775977009816237e-05  1.3254884050948807e-05  7.0524119097949060e-06  9.6587678381764549e-06  1.6971584539638356e-05  2.2058048294545579e-05  1.5507979346602627e-05  1.1126200897965964e-05  9.3608111406339021e-06  8.9058838832019765e-06  8.8844113448616490e-06  8.9055602948096281e-06  8.8810573660690079e-06  8.8043217849169995e-06  8.6959786935414454e-06  8.5735932413001638e-06  8.4470267552499835e-06  8.3231453694068127e-06  8.2077256535528643e-06  8.1052048236199410e-06  8.0180471687700361e-06  7.9466778435449317e-06  7.8901993059867389e-06  7.8473731822260807e-06  7.8172857224203259e-06  7.7995092135260031e-06  7.7939323636365036e-06  7.8005401131705630e-06  7.8193338780497286e-06  7.8504601932198884e-06  7.8944602679408287e-06  7.9524040555515441e-06  8.0256315844585253e-06  8.1150048705275782e-06  8.2198259286220107e-06  8.3376409436644300e-06  8.4640610738353173e-06  8.5939951054125192e-06  8.7188589636137990e-06  8.8214856411295402e-06  8.8914990628848560e-06  8.9138844347938812e-06  8.9928843933607602e-06  9.1329691310790692e-06  9.8279124050740480e-06  1.1331340249420532e-05  1.4767179356789862e-05  2.1724135444204498e-05  1.7879051687787266e-05  1.0249543869483789e-05  6.9283836551228470e-06  1.2829569676318429e-05  1.4412369367794621e-05  1.5751961731805632e-05  2.9593369763371707e-02  5.7047625439424071e-02  5.2988866881096441e-02  3.3284597228105124e-02  1.0399545224579441e-02  3.0886222284964519e-05  1.1737380693162700e-05  9.5126116460369564e-06  9.1952036245564652e-06  9.0835109239826864e-06  8.9423061807005563e-06  8.7862591855873671e-06  8.6304953022899477e-06  8.4788246515502180e-06  8.3350777309856401e-06  8.2042358091523642e-06  8.0907088452966929e-06  7.9966703992777149e-06  7.9215372325874985e-06  7.8630969734754913e-06  7.8190871825362579e-06  7.7881244263567443e-06  7.7697480485242517e-06  7.7639662311287326e-06  7.7708156217967319e-06  7.7902053900134634e-06  7.8221477809525590e-06  7.8672755120355467e-06  7.9272441725809179e-06  8.0044965929346861e-06  8.1012473038673658e-06  8.2175146557460810e-06  8.3510654169261724e-06  8.4984019569983517e-06  8.6567097724839895e-06  8.8165438409340342e-06  8.9750761253742128e-06  9.1186361398892289e-06  9.2720141120402653e-06  1.0091579646415260e-05  1.2220781989745298e-05  2.4200291828811674e-05  7.5990345743465505e-03  2.9009645376875986e-02  4.9956987308965806e-02  5.7467898332945654e-02  4.1209501137324037e-02  1.6265452584671889e-05  1.4356056843594686e-05  3.1704414255521494e-05  8.9856406192428545e-02  2.0992110506966927e-01  2.1425568228894398e-01  1.8037937000846893e-01  1.3259671661512726e-01  8.2144523788939147e-02  3.7702936321118617e-02  5.7735435506989941e-03  1.6360960416408734e-05  1.0308547805964639e-05  9.4090736474161745e-06  9.1114116157270592e-06  8.8872769211684673e-06  8.6939405379282489e-06  8.5137266757971840e-06  8.3467464997285054e-06  8.1974765159230384e-06  8.0710058143746194e-06  7.9695784793723356e-06  7.8910872262226466e-06  7.8312521030071171e-06  7.7863359114788064e-06  7.7544539912143803e-06  7.7353238199922521e-06  7.7292722044498391e-06  7.7364585340834057e-06  7.7566012573669620e-06  7.7893357936745464e-06  7.8352164566214125e-06  7.8965891775968422e-06  7.9774905965420694e-06  8.0823817234194073e-06  8.2124059415241802e-06  8.3640238381741883e-06  8.5361455420205445e-06  8.7241320732811682e-06  8.9397634040413879e-06  9.2101705287627313e-06  9.6041597636600396e-06  1.0799799985722371e-05  1.6331531730997832e-05  2.5631386360255642e-03  3.0929484441315474e-02  7.5968961393698090e-02  1.2829701332712892e-01  1.7547078588557527e-01  2.0843868168899007e-01  2.0796968343967789e-01  1.1423221473706535e-01  2.3320805465606221e-05  4.0097334811063678e-01  4.6426927776606730e-01  4.9584147539762247e-01  4.2303504378844703e-01  3.5489981823575162e-01  2.7485806621410513e-01  1.9376904041172618e-01  1.1963898804033492e-01  5.9880901534099480e-02  1.6877256357569044e-02  2.9123921205344976e-05  1.1332612661983001e-05  9.4254540621643043e-06  9.0108798241113002e-06  8.7664912669116981e-06  8.5520737633983169e-06  8.3579451274167148e-06  8.1863594485111433e-06  8.0444499155532128e-06  7.9355507717877772e-06  7.8548963738125081e-06  7.7948206560480478e-06  7.7494591955345951e-06  7.7165077379872662e-06  7.6963155451140643e-06  7.6898714596507667e-06  7.6975753003566504e-06  7.7188144261539153e-06  7.7523871461158498e-06  7.7983900809567366e-06  7.8599040610047901e-06  7.9433852044267836e-06  8.0568181509622384e-06  8.2042238954011964e-06  8.3751866878894790e-06  8.5804015397907965e-06  8.8046644402218882e-06  9.1427239794478437e-06  9.8907049864933570e-06  1.1807672925209322e-05  2.3667193850339842e-05  1.1735761594712752e-02  5.3524673894606516e-02  1.1621033317870091e-01  1.8974840082414893e-01  2.7059705264323924e-01  3.5078823837013862e-01  4.1782764857583976e-01  4.4818782198677315e-01  4.6929712536148865e-01  3.5717693190632743e-01  9.9992161854807415e-01  9.9067605897722699e-01  7.8633125139161286e-01  6.6342602834197817e-01  5.5674533688209049e-01  4.4315563703415262e-01  3.3544438830060697e-01  2.3490709671370319e-01  1.4681662963662823e-01  7.6659412269218422e-02  2.7312846347998049e-02  1.9165820057424166e-04  1.2616059685048476e-05  9.4654498137878154e-06  8.8941181103724107e-06  8.6010529018481712e-06  8.3715093284212119e-06  8.1705447478310585e-06  8.0089194839895769e-06  7.8932403648084933e-06  7.8128210847010669e-06  7.7544491677652739e-06  7.7092272120961720e-06  7.6747286112752121e-06  7.6528660221350236e-06  7.6458312874273343e-06  7.6543594776590266e-06  7.6774208580883130e-06  7.7121474841051406e-06  7.7573785546552219e-06  7.8170028815163619e-06  7.9010153504367668e-06  8.0221451842986810e-06  8.1967377811930138e-06  8.3925734123755503e-06  8.6542268001164720e-06  8.9946482474892967e-06  1.0120120819137106e-05  1.3254097047806788e-05  5.0100622732592643e-05  2.1529791307124464e-02  7.1527028883719465e-02  1.4385718363317881e-01  2.3107924451147263e-01  3.3164760294751949e-01  4.4148741337931546e-01  5.4401165534424778e-01  6.5575919626886414e-01  8.0495151255032327e-01  9.9930970612314785e-01  9.9976746354033930e-01  9.9998426083353809e-01  9.9998624874655562e-01  9.9995099904004647e-01  9.0650596839850806e-01  7.4435676081751911e-01  6.1525059772095136e-01  4.8866326252190934e-01  3.6898029074114919e-01  2.5990277673233297e-01  1.6590373497906991e-01  9.1182125659263522e-02  3.8465547296944742e-02  5.4922966782766213e-03  1.6179656845040671e-05  9.9742678732134415e-06  8.8066115197485320e-06  8.4325694274578312e-06  8.1645599781223776e-06  7.9685820372615038e-06  7.8458933028603587e-06  7.7681814260470347e-06  7.7137443210879683e-06  7.6688496511050168e-06  7.6313765808572724e-06  7.6066815848491951e-06  7.5987502045421496e-06  7.6084947868398963e-06  7.6351237575983200e-06  7.6724962197032777e-06  7.7166357548202589e-06  7.7730195680183482e-06  7.8562790757958002e-06  7.9870304285154439e-06  8.2193759495553448e-06  8.4920412190907213e-06  9.0908328970942973e-06  1.0528923640894005e-05  1.6012129575395734e-05  2.2362231139408583e-03  3.2609158050789178e-02  8.7363075288164213e-02  1.6315933101856897e-01  2.5699688752730954e-01  3.6640078490559197e-01  4.8809370957387060e-01  6.0963199929474077e-01  7.4099039306185932e-01  9.3990952066150957e-01  9.9996766203542031e-01  9.9998775171020693e-01  9.9997841520170450e-01  9.9998959800586018e-01  9.9999307967706919e-01  9.9998613586746155e-01  9.9994662248076205e-01  9.1110603293794545e-01  7.6760007737740343e-01  6.3625340400491104e-01  5.0819756010368933e-01  3.8673683937833636e-01  2.7650888910136656e-01  1.8216051119663984e-01  1.0664740184287826e-01  5.1977315658449312e-02  1.6012548827508927e-02  4.0891149234780301e-05  1.2725802353277559e-05  9.5031038971271826e-06  8.4949647673858893e-06  8.0857680993786036e-06  7.8923214134033015e-06  7.7860913995953233e-06  7.7199821694301536e-06  7.6659258100217840e-06  7.6186547590119884e-06  7.5880189663855868e-06  7.5787017913306404e-06  7.5909220815117159e-06  7.6265806225418209e-06  7.6754281338140864e-06  7.7315985654929211e-06  7.8092860208938193e-06  7.9379873515922942e-06  8.1775690452255231e-06  8.8066108907353974e-06  9.9349134226026632e-06  1.2584060674528849e-05  3.1506123402007477e-05  1.1592710561674754e-02  4.7150013026977293e-02  1.0429153783295243e-01  1.7946236416414912e-01  2.7420680842978767e-01  3.8516417108774903e-01  5.0812319503805770e-01  6.3611609729033280e-01  7.6455320915064573e-01  9.3913519042129479e-01  9.9995841915984141e-01  9.9998654339989856e-01  9.9999306833052326e-01  9.9998877577349421e-01  9.9998898976208828e-01  9.9999360218771083e-01  9.9998940185658147e-01  9.9997584851595955e-01  9.9984306045786620e-01  8.8353357821306577e-01  7.6314008032487946e-01  6.3851376024453388e-01  5.1533492867672837e-01  3.9797170590662401e-01  2.9171433376107131e-01  2.0085976115725834e-01  1.2769370201235034e-01  7.3221635052690345e-02  3.5894107692204393e-02  1.1556147203247489e-02  6.1291881857896202e-05  1.6556233046395372e-05  1.1663065433619748e-05  1.0117580376604694e-05  9.3765435989583525e-06  8.9694336147993757e-06  8.7030418356855078e-06  8.5290661645106405e-06  8.4452746027247665e-06  8.4266273350847843e-06  8.4650824439176827e-06  8.5815526462960995e-06  8.7587480720668432e-06  9.0030283932656948e-06  9.4102399163355653e-06  1.0139211150243107e-05  1.1606370288678801e-05  1.5981332173415600e-05  4.8629354795615289e-05  8.6108029869426048e-03  3.1035654497422287e-02  7.0172353834490220e-02  1.2596399842153780e-01  1.9871774665525802e-01  2.8991143434680761e-01  3.9731221090333985e-01  5.1557569239008938e-01  6.4046982110988870e-01  7.6239688167837694e-01  8.9709404861268915e-01  9.9988877931589559e-01  9.9997569328176494e-01  9.9998902517312671e-01  9.9999344099016541e-01  9.9998965134057516e-01  9.9997991974342693e-01  9.9999041372294906e-01  9.9998605813827179e-01  9.9997492424665468e-01  9.9992563932771794e-01  9.6131031572533887e-01  8.5588487192803819e-01  7.4850439897820675e-01  6.3439660891316318e-01  5.1975160781017749e-01  4.1068424563401240e-01  3.1239346369238935e-01  2.2860628495427962e-01  1.6104411612217578e-01  1.0939779808199217e-01  7.2253406805647943e-02  4.6690546474552223e-02  2.8541192022425974e-02  1.6364316450918286e-02  9.2594612896943519e-03  4.7136718639734770e-03  1.8924692629752515e-03  3.7419935737046154e-04  1.1774574535600168e-04  7.9996483511449192e-05  7.2531314825630586e-05  7.8518209686395115e-05  1.1125757098080761e-04  3.1693057182684612e-04  1.6738230377783014e-03  4.3129634290209615e-03  8.5008644750942594e-03  1.5071235878410369e-02  2.5497340341452575e-02  4.3018035107170401e-02  7.0296779630811865e-02  1.0827846273923403e-01  1.5975415550578648e-01  2.2714132202148835e-01  3.1146945013180560e-01  4.1066794341812485e-01  5.2063767526433824e-01  6.3624097296707827e-01  7.5166929610502808e-01  8.5922048351269875e-01  9.7065606564370643e-01  9.9992265563422156e-01  9.9997231538581910e-01  9.9998485574008034e-01  9.9998979003379274e-01  9.9998487694429650e-01  9.9978556609875036e-01  9.9995687714138759e-01  9.9995444993759097e-01  9.9993730753246512e-01  9.9986292790276288e-01  9.8196845956058454e-01  9.0844572759513520e-01  8.2979340820399927e-01  7.3426717159773280e-01  6.3206057729865428e-01  5.2940996894886772e-01  4.3258632808561903e-01  3.4637540232760761e-01  2.7363166501602004e-01  2.1524334597001832e-01  1.7029577270714916e-01  1.3670833635575003e-01  1.1247464711857094e-01  9.5727017374270945e-02  8.4080390696236434e-02  7.5762723081834418e-02  7.0112978529522169e-02  6.6336167256381251e-02  6.3825116041331717e-02  6.2324389899805772e-02  6.1807980626895867e-02  6.2124988478302570e-02  6.3358981299466738e-02  6.5791205721777671e-02  6.9614386197469000e-02  7.5184315531603263e-02  8.3361834280613209e-02  9.5227090145852372e-02  1.1237196446510968e-01  1.3661597239631521e-01  1.6973588670367612e-01  2.1434405221625713e-01  2.7304607485535687e-01  3.4639932480795727e-01  4.3327992726547626e-01  5.3078280326347105e-01  6.3430715309821450e-01  7.3761797878091584e-01  8.3369332963486886e-01  9.1645817382956329e-01  9.8193563251502980e-01  9.9982877337086129e-01  9.9992872580855963e-01  9.9995439443255385e-01  9.9996273381154466e-01  9.9993977436084081e-01  3.3927907941455249e-01  6.4701621531498388e-01  8.0608268657132220e-01  9.0167211686832616e-01  9.4200792194371408e-01  9.4467517844870674e-01  9.2234528769494262e-01  8.7652688630429409e-01  8.0787119490295523e-01  7.2651558940006145e-01  6.3891221310304391e-01  5.5228476893574863e-01  4.722775530