<?xml version="1.0"?>
<VTKFile type="UnstructuredGrid"  version="0.1"  >
<UnstructuredGrid>
<Piece  NumberOfPoints="2601" NumberOfCells="5000">
<Points>
<DataArray  type="Float64"  NumberOfComponents="3"  format="ascii">0 0 0  0.03 0 0  0.06 0 0  0.09 0 0  0.12 0 0  0.15 0 0  0.18 0 0  0.21 0 0  0.24 0 0  0.27 0 0  0.3 0 0  0.33 0 0  0.36 0 0  0.39 0 0  0.42 0 0  0.45 0 0  0.48 0 0  0.51 0 0  0.54 0 0  0.57 0 0  0.6 0 0  0.63 0 0  0.66 0 0  0.6899999999999999 0 0  0.72 0 0  0.75 0 0  0.78 0 0  0.8100000000000001 0 0  0.84 0 0  0.87 0 0  0.9 0 0  0.93 0 0  0.96 0 0  0.99 0 0  1.02 0 0  1.05 0 0  1.08 0 0  1.11 0 0  1.14 0 0  1.17 0 0  1.2 0 0  1.23 0 0  1.26 0 0  1.29 0 0  1.32 0 0  1.35 0 0  1.38 0 0  1.41 0 0  1.44 0 0  1.47 0 0  1.5 0 0  0 0.02 0  0.03 0.02 0  0.06 0.02 0  0.09 0.02 0  0.12 0.02 0  0.15 0.02 0  0.18 0.02 0  0.21 0.02 0  0.24 0.02 0  0.27 0.02 0  0.3 0.02 0  0.33 0.02 0  0.36 0.02 0  0.39 0.02 0  0.42 0.02 0  0.45 0.02 0  0.48 0.02 0  0.51 0.02 0  0.54 0.02 0  0.57 0.02 0  0.6 0.02 0  0.63 0.02 0  0.66 0.02 0  0.6899999999999999 0.02 0  0.72 0.02 0  0.75 0.02 0  0.78 0.02 0  0.8100000000000001 0.02 0  0.84 0.02 0  0.87 0.02 0  0.9 0.02 0  0.93 0.02 0  0.96 0.02 0  0.99 0.02 0  1.02 0.02 0  1.05 0.02 0  1.08 0.02 0  1.11 0.02 0  1.14 0.02 0  1.17 0.02 0  1.2 0.02 0  1.23 0.02 0  1.26 0.02 0  1.29 0.02 0  1.32 0.02 0  1.35 0.02 0  1.38 0.02 0  1.41 0.02 0  1.44 0.02 0  1.47 0.02 0  1.5 0.02 0  0 0.04 0  0.03 0.04 0  0.06 0.04 0  0.09 0.04 0  0.12 0.04 0  0.15 0.04 0  0.18 0.04 0  0.21 0.04 0  0.24 0.04 0  0.27 0.04 0  0.3 0.04 0  0.33 0.04 0  0.36 0.04 0  0.39 0.04 0  0.42 0.04 0  0.45 0.04 0  0.48 0.04 0  0.51 0.04 0  0.54 0.04 0  0.57 0.04 0  0.6 0.04 0  0.63 0.04 0  0.66 0.04 0  0.6899999999999999 0.04 0  0.72 0.04 0  0.75 0.04 0  0.78 0.04 0  0.8100000000000001 0.04 0  0.84 0.04 0  0.87 0.04 0  0.9 0.04 0  0.93 0.04 0  0.96 0.04 0  0.99 0.04 0  1.02 0.04 0  1.05 0.04 0  1.08 0.04 0  1.11 0.04 0  1.14 0.04 0  1.17 0.04 0  1.2 0.04 0  1.23 0.04 0  1.26 0.04 0  1.29 0.04 0  1.32 0.04 0  1.35 0.04 0  1.38 0.04 0  1.41 0.04 0  1.44 0.04 0  1.47 0.04 0  1.5 0.04 0  0 0.06 0  0.03 0.06 0  0.06 0.06 0  0.09 0.06 0  0.12 0.06 0  0.15 0.06 0  0.18 0.06 0  0.21 0.06 0  0.24 0.06 0  0.27 0.06 0  0.3 0.06 0  0.33 0.06 0  0.36 0.06 0  0.39 0.06 0  0.42 0.06 0  0.45 0.06 0  0.48 0.06 0  0.51 0.06 0  0.54 0.06 0  0.57 0.06 0  0.6 0.06 0  0.63 0.06 0  0.66 0.06 0  0.6899999999999999 0.06 0  0.72 0.06 0  0.75 0.06 0  0.78 0.06 0  0.8100000000000001 0.06 0  0.84 0.06 0  0.87 0.06 0  0.9 0.06 0  0.93 0.06 0  0.96 0.06 0  0.99 0.06 0  1.02 0.06 0  1.05 0.06 0  1.08 0.06 0  1.11 0.06 0  1.14 0.06 0  1.17 0.06 0  1.2 0.06 0  1.23 0.06 0  1.26 0.06 0  1.29 0.06 0  1.32 0.06 0  1.35 0.06 0  1.38 0.06 0  1.41 0.06 0  1.44 0.06 0  1.47 0.06 0  1.5 0.06 0  0 0.08 0  0.03 0.08 0  0.06 0.08 0  0.09 0.08 0  0.12 0.08 0  0.15 0.08 0  0.18 0.08 0  0.21 0.08 0  0.24 0.08 0  0.27 0.08 0  0.3 0.08 0  0.33 0.08 0  0.36 0.08 0  0.39 0.08 0  0.42 0.08 0  0.45 0.08 0  0.48 0.08 0  0.51 0.08 0  0.54 0.08 0  0.57 0.08 0  0.6 0.08 0  0.63 0.08 0  0.66 0.08 0  0.6899999999999999 0.08 0  0.72 0.08 0  0.75 0.08 0  0.78 0.08 0  0.8100000000000001 0.08 0  0.84 0.08 0  0.87 0.08 0  0.9 0.08 0  0.93 0.08 0  0.96 0.08 0  0.99 0.08 0  1.02 0.08 0  1.05 0.08 0  1.08 0.08 0  1.11 0.08 0  1.14 0.08 0  1.17 0.08 0  1.2 0.08 0  1.23 0.08 0  1.26 0.08 0  1.29 0.08 0  1.32 0.08 0  1.35 0.08 0  1.38 0.08 0  1.41 0.08 0  1.44 0.08 0  1.47 0.08 0  1.5 0.08 0  0 0.1 0  0.03 0.1 0  0.06 0.1 0  0.09 0.1 0  0.12 0.1 0  0.15 0.1 0  0.18 0.1 0  0.21 0.1 0  0.24 0.1 0  0.27 0.1 0  0.3 0.1 0  0.33 0.1 0  0.36 0.1 0  0.39 0.1 0  0.42 0.1 0  0.45 0.1 0  0.48 0.1 0  0.51 0.1 0  0.54 0.1 0  0.57 0.1 0  0.6 0.1 0  0.63 0.1 0  0.66 0.1 0  0.6899999999999999 0.1 0  0.72 0.1 0  0.75 0.1 0  0.78 0.1 0  0.8100000000000001 0.1 0  0.84 0.1 0  0.87 0.1 0  0.9 0.1 0  0.93 0.1 0  0.96 0.1 0  0.99 0.1 0  1.02 0.1 0  1.05 0.1 0  1.08 0.1 0  1.11 0.1 0  1.14 0.1 0  1.17 0.1 0  1.2 0.1 0  1.23 0.1 0  1.26 0.1 0  1.29 0.1 0  1.32 0.1 0  1.35 0.1 0  1.38 0.1 0  1.41 0.1 0  1.44 0.1 0  1.47 0.1 0  1.5 0.1 0  0 0.12 0  0.03 0.12 0  0.06 0.12 0  0.09 0.12 0  0.12 0.12 0  0.15 0.12 0  0.18 0.12 0  0.21 0.12 0  0.24 0.12 0  0.27 0.12 0  0.3 0.12 0  0.33 0.12 0  0.36 0.12 0  0.39 0.12 0  0.42 0.12 0  0.45 0.12 0  0.48 0.12 0  0.51 0.12 0  0.54 0.12 0  0.57 0.12 0  0.6 0.12 0  0.63 0.12 0  0.66 0.12 0  0.6899999999999999 0.12 0  0.72 0.12 0  0.75 0.12 0  0.78 0.12 0  0.8100000000000001 0.12 0  0.84 0.12 0  0.87 0.12 0  0.9 0.12 0  0.93 0.12 0  0.96 0.12 0  0.99 0.12 0  1.02 0.12 0  1.05 0.12 0  1.08 0.12 0  1.11 0.12 0  1.14 0.12 0  1.17 0.12 0  1.2 0.12 0  1.23 0.12 0  1.26 0.12 0  1.29 0.12 0  1.32 0.12 0  1.35 0.12 0  1.38 0.12 0  1.41 0.12 0  1.44 0.12 0  1.47 0.12 0  1.5 0.12 0  0 0.14 0  0.03 0.14 0  0.06 0.14 0  0.09 0.14 0  0.12 0.14 0  0.15 0.14 0  0.18 0.14 0  0.21 0.14 0  0.24 0.14 0  0.27 0.14 0  0.3 0.14 0  0.33 0.14 0  0.36 0.14 0  0.39 0.14 0  0.42 0.14 0  0.45 0.14 0  0.48 0.14 0  0.51 0.14 0  0.54 0.14 0  0.57 0.14 0  0.6 0.14 0  0.63 0.14 0  0.66 0.14 0  0.6899999999999999 0.14 0  0.72 0.14 0  0.75 0.14 0  0.78 0.14 0  0.8100000000000001 0.14 0  0.84 0.14 0  0.87 0.14 0  0.9 0.14 0  0.93 0.14 0  0.96 0.14 0  0.99 0.14 0  1.02 0.14 0  1.05 0.14 0  1.08 0.14 0  1.11 0.14 0  1.14 0.14 0  1.17 0.14 0  1.2 0.14 0  1.23 0.14 0  1.26 0.14 0  1.29 0.14 0  1.32 0.14 0  1.35 0.14 0  1.38 0.14 0  1.41 0.14 0  1.44 0.14 0  1.47 0.14 0  1.5 0.14 0  0 0.16 0  0.03 0.16 0  0.06 0.16 0  0.09 0.16 0  0.12 0.16 0  0.15 0.16 0  0.18 0.16 0  0.21 0.16 0  0.24 0.16 0  0.27 0.16 0  0.3 0.16 0  0.33 0.16 0  0.36 0.16 0  0.39 0.16 0  0.42 0.16 0  0.45 0.16 0  0.48 0.16 0  0.51 0.16 0  0.54 0.16 0  0.57 0.16 0  0.6 0.16 0  0.63 0.16 0  0.66 0.16 0  0.6899999999999999 0.16 0  0.72 0.16 0  0.75 0.16 0  0.78 0.16 0  0.8100000000000001 0.16 0  0.84 0.16 0  0.87 0.16 0  0.9 0.16 0  0.93 0.16 0  0.96 0.16 0  0.99 0.16 0  1.02 0.16 0  1.05 0.16 0  1.08 0.16 0  1.11 0.16 0  1.14 0.16 0  1.17 0.16 0  1.2 0.16 0  1.23 0.16 0  1.26 0.16 0  1.29 0.16 0  1.32 0.16 0  1.35 0.16 0  1.38 0.16 0  1.41 0.16 0  1.44 0.16 0  1.47 0.16 0  1.5 0.16 0  0 0.18 0  0.03 0.18 0  0.06 0.18 0  0.09 0.18 0  0.12 0.18 0  0.15 0.18 0  0.18 0.18 0  0.21 0.18 0  0.24 0.18 0  0.27 0.18 0  0.3 0.18 0  0.33 0.18 0  0.36 0.18 0  0.39 0.18 0  0.42 0.18 0  0.45 0.18 0  0.48 0.18 0  0.51 0.18 0  0.54 0.18 0  0.57 0.18 0  0.6 0.18 0  0.63 0.18 0  0.66 0.18 0  0.6899999999999999 0.18 0  0.72 0.18 0  0.75 0.18 0  0.78 0.18 0  0.8100000000000001 0.18 0  0.84 0.18 0  0.87 0.18 0  0.9 0.18 0  0.93 0.18 0  0.96 0.18 0  0.99 0.18 0  1.02 0.18 0  1.05 0.18 0  1.08 0.18 0  1.11 0.18 0  1.14 0.18 0  1.17 0.18 0  1.2 0.18 0  1.23 0.18 0  1.26 0.18 0  1.29 0.18 0  1.32 0.18 0  1.35 0.18 0  1.38 0.18 0  1.41 0.18 0  1.44 0.18 0  1.47 0.18 0  1.5 0.18 0  0 0.2 0  0.03 0.2 0  0.06 0.2 0  0.09 0.2 0  0.12 0.2 0  0.15 0.2 0  0.18 0.2 0  0.21 0.2 0  0.24 0.2 0  0.27 0.2 0  0.3 0.2 0  0.33 0.2 0  0.36 0.2 0  0.39 0.2 0  0.42 0.2 0  0.45 0.2 0  0.48 0.2 0  0.51 0.2 0  0.54 0.2 0  0.57 0.2 0  0.6 0.2 0  0.63 0.2 0  0.66 0.2 0  0.6899999999999999 0.2 0  0.72 0.2 0  0.75 0.2 0  0.78 0.2 0  0.8100000000000001 0.2 0  0.84 0.2 0  0.87 0.2 0  0.9 0.2 0  0.93 0.2 0  0.96 0.2 0  0.99 0.2 0  1.02 0.2 0  1.05 0.2 0  1.08 0.2 0  1.11 0.2 0  1.14 0.2 0  1.17 0.2 0  1.2 0.2 0  1.23 0.2 0  1.26 0.2 0  1.29 0.2 0  1.32 0.2 0  1.35 0.2 0  1.38 0.2 0  1.41 0.2 0  1.44 0.2 0  1.47 0.2 0  1.5 0.2 0  0 0.22 0  0.03 0.22 0  0.06 0.22 0  0.09 0.22 0  0.12 0.22 0  0.15 0.22 0  0.18 0.22 0  0.21 0.22 0  0.24 0.22 0  0.27 0.22 0  0.3 0.22 0  0.33 0.22 0  0.36 0.22 0  0.39 0.22 0  0.42 0.22 0  0.45 0.22 0  0.48 0.22 0  0.51 0.22 0  0.54 0.22 0  0.57 0.22 0  0.6 0.22 0  0.63 0.22 0  0.66 0.22 0  0.6899999999999999 0.22 0  0.72 0.22 0  0.75 0.22 0  0.78 0.22 0  0.8100000000000001 0.22 0  0.84 0.22 0  0.87 0.22 0  0.9 0.22 0  0.93 0.22 0  0.96 0.22 0  0.99 0.22 0  1.02 0.22 0  1.05 0.22 0  1.08 0.22 0  1.11 0.22 0  1.14 0.22 0  1.17 0.22 0  1.2 0.22 0  1.23 0.22 0  1.26 0.22 0  1.29 0.22 0  1.32 0.22 0  1.35 0.22 0  1.38 0.22 0  1.41 0.22 0  1.44 0.22 0  1.47 0.22 0  1.5 0.22 0  0 0.24 0  0.03 0.24 0  0.06 0.24 0  0.09 0.24 0  0.12 0.24 0  0.15 0.24 0  0.18 0.24 0  0.21 0.24 0  0.24 0.24 0  0.27 0.24 0  0.3 0.24 0  0.33 0.24 0  0.36 0.24 0  0.39 0.24 0  0.42 0.24 0  0.45 0.24 0  0.48 0.24 0  0.51 0.24 0  0.54 0.24 0  0.57 0.24 0  0.6 0.24 0  0.63 0.24 0  0.66 0.24 0  0.6899999999999999 0.24 0  0.72 0.24 0  0.75 0.24 0  0.78 0.24 0  0.8100000000000001 0.24 0  0.84 0.24 0  0.87 0.24 0  0.9 0.24 0  0.93 0.24 0  0.96 0.24 0  0.99 0.24 0  1.02 0.24 0  1.05 0.24 0  1.08 0.24 0  1.11 0.24 0  1.14 0.24 0  1.17 0.24 0  1.2 0.24 0  1.23 0.24 0  1.26 0.24 0  1.29 0.24 0  1.32 0.24 0  1.35 0.24 0  1.38 0.24 0  1.41 0.24 0  1.44 0.24 0  1.47 0.24 0  1.5 0.24 0  0 0.26 0  0.03 0.26 0  0.06 0.26 0  0.09 0.26 0  0.12 0.26 0  0.15 0.26 0  0.18 0.26 0  0.21 0.26 0  0.24 0.26 0  0.27 0.26 0  0.3 0.26 0  0.33 0.26 0  0.36 0.26 0  0.39 0.26 0  0.42 0.26 0  0.45 0.26 0  0.48 0.26 0  0.51 0.26 0  0.54 0.26 0  0.57 0.26 0  0.6 0.26 0  0.63 0.26 0  0.66 0.26 0  0.6899999999999999 0.26 0  0.72 0.26 0  0.75 0.26 0  0.78 0.26 0  0.8100000000000001 0.26 0  0.84 0.26 0  0.87 0.26 0  0.9 0.26 0  0.93 0.26 0  0.96 0.26 0  0.99 0.26 0  1.02 0.26 0  1.05 0.26 0  1.08 0.26 0  1.11 0.26 0  1.14 0.26 0  1.17 0.26 0  1.2 0.26 0  1.23 0.26 0  1.26 0.26 0  1.29 0.26 0  1.32 0.26 0  1.35 0.26 0  1.38 0.26 0  1.41 0.26 0  1.44 0.26 0  1.47 0.26 0  1.5 0.26 0  0 0.28 0  0.03 0.28 0  0.06 0.28 0  0.09 0.28 0  0.12 0.28 0  0.15 0.28 0  0.18 0.28 0  0.21 0.28 0  0.24 0.28 0  0.27 0.28 0  0.3 0.28 0  0.33 0.28 0  0.36 0.28 0  0.39 0.28 0  0.42 0.28 0  0.45 0.28 0  0.48 0.28 0  0.51 0.28 0  0.54 0.28 0  0.57 0.28 0  0.6 0.28 0  0.63 0.28 0  0.66 0.28 0  0.6899999999999999 0.28 0  0.72 0.28 0  0.75 0.28 0  0.78 0.28 0  0.8100000000000001 0.28 0  0.84 0.28 0  0.87 0.28 0  0.9 0.28 0  0.93 0.28 0  0.96 0.28 0  0.99 0.28 0  1.02 0.28
[...]
<PointData  Scalars="ControlVisualisation"> 
<DataArray  type="Float64"  Name="ControlVisualisation"  format="ascii">9.7095892628894370e-02  6.7787093470977292e-02  6.7864850558219114e-02  6.8032837951686811e-02  6.8289307382007419e-02  6.8598356359299964e-02  6.8923815358790913e-02  6.9251415544729203e-02  6.9579895186820645e-02  6.9899858880320354e-02  7.0187451789182315e-02  7.0416943185952735e-02  7.0573928746526501e-02  7.0658310695373858e-02  7.0681699230950579e-02  7.0664325976931730e-02  7.0630582955652721e-02  7.0602410598053916e-02  7.0593474797446237e-02  7.0607205740010739e-02  7.0638812526490513e-02  7.0679283782964966e-02  7.0719214928435872e-02  7.0751189082175966e-02  7.0770537992582663e-02  7.0775081104840432e-02  7.0764645362366096e-02  7.0740915322446987e-02  7.0707712038617421e-02  7.0671338387898422e-02  7.0640287929137374e-02  7.0623599617441538e-02  7.0627673802133778e-02  7.0652359416815261e-02  7.0688056032666549e-02  7.0715825290746312e-02  7.0711441002469191e-02  7.0651806694710051e-02  7.0520779193807628e-02  7.0313784066271465e-02  7.0041388379937758e-02  6.9726826030931152e-02  6.9393866374772295e-02  6.9054997359606810e-02  6.8715189014914718e-02  6.8388817827757242e-02  6.8108727240914574e-02  6.7911251105939999e-02  6.7807038184217711e-02  6.7770139347096886e-02  1.8296966215252752e-01  6.7777739544944302e-02  3.5912435425590680e-02  3.6111823396194599e-02  3.6569186726093918e-02  3.7310021749594351e-02  3.8245814394964550e-02  3.9256679377086670e-02  4.0279156871830757e-02  4.1308023906903663e-02  4.2330854225163306e-02  4.3285161592691003e-02  4.4084661089076979e-02  4.4667067420154472e-02  4.5012771596938971e-02  4.5142144800427886e-02  4.5111347317441042e-02  4.5001620701707580e-02  4.4894924385371869e-02  4.4848166862552594e-02  4.4881631139715321e-02  4.4983684520301555e-02  4.5124336621576402e-02  4.5269499260977342e-02  4.5390815123250369e-02  4.5469614049784890e-02  4.5496570880356579e-02  4.5469910127752436e-02  4.5394451125244095e-02  4.5282246935604051e-02  4.5153858363468108e-02  4.5037946461248229e-02  4.4966534227409150e-02  4.4964772575095437e-02  4.5037246284764784e-02  4.5156318743749750e-02  4.5260190106182527e-02  4.5266572832937092e-02  4.5097848630594732e-02  4.4702824916782832e-02  4.4068162652167647e-02  4.3225052839857114e-02  4.2243179140807982e-02  4.1197410178966769e-02  4.0129232245567248e-02  3.9052707596869490e-02  3.8007081048738685e-02  3.7090305560421255e-02  3.6419474527940095e-02  3.6042120503524455e-02  3.5890030443203422e-02  6.7768970562098810e-02  6.7803824149035311e-02  3.5994654303988786e-02  3.6390946677670233e-02  3.7304305553222596e-02  3.8830887281996629e-02  4.0807274225584965e-02  4.2952957272295450e-02  4.5079078667951321e-02  4.7161040454044172e-02  4.9207343643491233e-02  5.1115913269997232e-02  5.2708562101589605e-02  5.3852901497008381e-02  5.4509068680256081e-02  5.4715180082898593e-02  5.4583464009377081e-02  5.4288488710159212e-02  5.4012084530373101e-02  5.3880067894889208e-02  5.3935813834430538e-02  5.4151942403827355e-02  5.4460257356887143e-02  5.4783172475314647e-02  5.5056128604112436e-02  5.5236883287579149e-02  5.5304438433192493e-02  5.5254262148093668e-02  5.5095598774034908e-02  5.4852947120966979e-02  5.4569634830863169e-02  5.4308233029050662e-02  5.4141677854021360e-02  5.4131986118938796e-02  5.4300043036003998e-02  5.4597110464832149e-02  5.4895162126904755e-02  5.5014493745411772e-02  5.4784081587193334e-02  5.4093687203192256e-02  5.2916574975368759e-02  5.1319787165713705e-02  4.9440598030539393e-02  4.7400456164275628e-02  4.5233176774350972e-02  4.2943130789877791e-02  4.0648952117278106e-02  3.8621713781972787e-02  3.7144751635477577e-02  3.6315261820029254e-02  3.5967791911862168e-02  6.7786613274155458e-02  6.7835639525902339e-02  3.6135862631720833e-02  3.6896082876990477e-02  3.8588480165793415e-02  4.1324750797344066e-02  4.4663927983397592e-02  4.7936531855535189e-02  5.0743234833519266e-02  5.3158846380359503e-02  5.5410829299460000e-02  5.7502043691151611e-02  5.9216961877901077e-02  6.0341951393883077e-02  6.0820245367839552e-02  6.0747177464809732e-02  6.0310846244635952e-02  5.9756045375058173e-02  5.9310720800977629e-02  5.9109709073311964e-02  5.9178395151130228e-02  5.9460145324392213e-02  5.9855907897868627e-02  6.0262509583317553e-02  6.0599915538433233e-02  6.0820532781719956e-02  6.0903901804039109e-02  6.0847338377111412e-02  6.0661475434371642e-02  6.0373425739902453e-02  6.0034104753028131e-02  5.9721888080017216e-02  5.9533846005181842e-02  5.9560380453607918e-02  5.9847103969447285e-02  6.0355050516136127e-02  6.0938802033988493e-02  6.1368329243574417e-02  6.1391296171394341e-02  6.0795889375368284e-02  5.9502185282100731e-02  5.7668582815659918e-02  5.5619921212575446e-02  5.3544340963236112e-02  5.1236404477671235e-02  4.8288352718775594e-02  4.4670239482876170e-02  4.1033557921095497e-02  3.8257557701157241e-02  3.6707632327984414e-02  3.6078592987869425e-02  6.7818554322669714e-02  6.7851897291639832e-02  3.6427637336012023e-02  3.8431348616923731e-02  4.2606812870637223e-02  4.8454722710005706e-02  5.4253671018936911e-02  5.8475357382839162e-02  6.1136785430535689e-02  6.3280653494719133e-02  6.5518013979573866e-02  6.7590825345428318e-02  6.8980149155167453e-02  6.9391538865394120e-02  6.8920129305658051e-02  6.7864013082064342e-02  6.6513363197586883e-02  6.5193898836366074e-02  6.4199948192006528e-02  6.3667196302801099e-02  6.3574589708210297e-02  6.3807372192834361e-02  6.4212160486548833e-02  6.4644971377120886e-02  6.5005525277285398e-02  6.5243662140393344e-02  6.5343693820525586e-02  6.5306114264678042e-02  6.5140784378940858e-02  6.4874312836839046e-02  6.4565242795119049e-02  6.4313862553302001e-02  6.4252696118511768e-02  6.4513491335878290e-02  6.5178478558412745e-02  6.6230014837757409e-02  6.7523892538862415e-02  6.8823937929967466e-02  6.9863142708144685e-02  7.0288083680319538e-02  6.9650562651134923e-02  6.7829449918865733e-02  6.5343224735721142e-02  6.3001493141186499e-02  6.1087803073092938e-02  5.8830819335398125e-02  5.4811716080665443e-02  4.8551463425154311e-02  4.2056887963392416e-02  3.7866157639521281e-02  3.6266391807025192e-02  6.7848980245956023e-02  6.7883894045523738e-02  3.7393536507660904e-02  4.4035774041681852e-02  5.4450519091010272e-02  6.2580712768098776e-02  6.7000487087196275e-02  6.8180091230873929e-02  6.8499346460030225e-02  7.0893268304207696e-02  7.5421493340633167e-02  7.9305428145251405e-02  8.0715769966794665e-02  7.9904045305727048e-02  7.7787311295505868e-02  7.5198384977282373e-02  7.2587200007898034e-02  7.0288549426535063e-02  6.8599608321852731e-02  6.7623455304578098e-02  6.7286549205661086e-02  6.7416737221076231e-02  6.7794740026941386e-02  6.8221779821241252e-02  6.8576202787115528e-02  6.8814926526501036e-02  6.8935234808674445e-02  6.8938524605677190e-02  6.8818612182310140e-02  6.8576245713989473e-02  6.8250108962443157e-02  6.7943041047835703e-02  6.7820417163407198e-02  6.8074636065024535e-02  6.8868051652179199e-02  7.0268295814391812e-02  7.2208071742147231e-02  7.4507508123977453e-02  7.6891281143152676e-02  7.8857510393600783e-02  7.9535896993769215e-02  7.8157201606905702e-02  7.4947214181484215e-02  7.1346718400881665e-02  6.8947165396442633e-02  6.7051237360821359e-02  6.5172612278909636e-02  6.3237956513274976e-02  5.4961876682632652e-02  4.2691728945278049e-02  3.6787930245052350e-02  6.7865116891099433e-02  6.8328600315825008e-02  3.9033774937912422e-02  5.7298314611558446e-02  8.7298686485570251e-02  8.2562759072367556e-02  7.7207090053504832e-02  7.3261551986522039e-02  6.9337855960436193e-02  6.8623631623472861e-02  7.3668541350209810e-02  8.1077137318247131e-02  8.4792610740227273e-02  8.3479357912213698e-02  7.9623979982483217e-02  7.5424434602969839e-02  7.2071368480737447e-02  7.0044820897193730e-02  6.9274980113914433e-02  6.9383584369595463e-02  7.0004873762979286e-02  7.0867047850645890e-02  7.1730377404131518e-02  7.2412624377614657e-02  7.2847524884705819e-02  7.3061947061790894e-02  7.3099804925616269e-02  7.2964576408124329e-02  7.2605769671512763e-02  7.1947075715105099e-02  7.0946350299402314e-02  6.9656685749175606e-02  6.8256672524687270e-02  6.7058385150851205e-02  6.6510536968794123e-02  6.7123920639680687e-02  6.9267929717795773e-02  7.2883581806944833e-02  7.7262602799393454e-02  8.1097696785250722e-02  8.2721226281189109e-02  8.0874591981469790e-02  7.6972462904973726e-02  7.4590412319301247e-02  7.5072140470485840e-02  7.6877954050419126e-02  7.4903911145553295e-02  7.1909436478602734e-02  7.3785653193380513e-02  6.1945601291418947e-02  4.0129376395344488e-02  6.7894373399952454e-02  7.1773634225058433e-02  5.2506371813765294e-02  5.5038268510395394e-02  1.5862299454700718e-01  2.1172407549319214e-01  2.1198519372378155e-01  1.9960142742919332e-01  1.7593020243058610e-01  1.5027829647230462e-01  1.2873412136380299e-01  1.1456810125302118e-01  1.0569203187781523e-01  9.6747291118133932e-02  8.6098183419528809e-02  7.5121760181029743e-02  6.5709566873367750e-02  5.9743926641469991e-02  5.7686142017803588e-02  5.8599588802645659e-02  6.1229691368175174e-02  6.4466820095111815e-02  6.7440172857895428e-02  6.9632457715462837e-02  7.0925714211054106e-02  7.1450924306845826e-02  7.1368943811943197e-02  7.0746689475786842e-02  6.9550883885461851e-02  6.7729661358040913e-02  6.5352558130398836e-02  6.2732403782308002e-02  6.0450857125475981e-02  5.9280532167702557e-02  6.0017735884141464e-02  6.3230601783968707e-02  6.9157261603555065e-02  7.7878610854213798e-02  8.9105160111143514e-02  1.0183136664156398e-01  1.1463343974328488e-01  1.2602691921213549e-01  1.3677695928958311e-01  1.5157590273780477e-01  1.6938868895584228e-01  1.8637562366228885e-01  1.9658621043086866e-01  1.9097458982189000e-01  1.6681627799575352e-01  1.2866434136241925e-01  5.6231309052733061e-02  6.8452450788532224e-02  9.9793678597847296e-02  1.7117622126613577e-01  3.4089183964471620e-01  3.7676490629968173e-01  3.5345110307315519e-01  3.6483132455768991e-01  3.6552683929095453e-01  3.2281297770818229e-01  2.7166233781232513e-01  2.3479733930723545e-01  2.0454288395364689e-01  1.7534073270570677e-01  1.4892560697921459e-01  1.3279968370307399e-01  1.2908925243739375e-01  9.9655381554317080e-02  7.4099118447819037e-02  6.0152531043730265e-02  5.1544022039683612e-02  4.6894697465213943e-02  4.5603051932405783e-02  4.6449393358264340e-02  4.8197761582927427e-02  4.9919987010933420e-02  5.1082148815605362e-02  5.1477849405246121e-02  5.1129161608352937e-02  5.0247101310849057e-02  4.9251780989267260e-02  4.8793158321310884e-02  4.9682697145849969e-02  5.2668897701717739e-02  5.8315567209892852e-02  6.7538442641394303e-02  8.2195350585385962e-02  1.0211465673356389e-01  1.1750181131077617e-01  1.2988469789665974e-01  1.4885409612413886e-01  1.7382049227455676e-01  2.0183542142483213e-01  2.2872874024524167e-01  2.5690761578010884e-01  2.9693248968990249e-01  3.3722551972043613e-01  3.6423765928476337e-01  3.8618393165526549e-01  4.0417848046569299e-01  3.5378748536353644e-01  1.6945976262829190e-01  8.4013943441535621e-02  4.3584540647434267e-01  5.0921381337523075e-01  5.5823520057272147e-01  5.1763981354532496e-01  4.6616829512191954e-01  4.1886140677718198e-01  3.8520554063881274e-01  3.5709034904705822e-01  3.2546760196359636e-01  2.9321227830950281e-01  2.6188345331864238e-01  2.3092158923785747e-01  2.0297436669071842e-01  1.7934379505710069e-01  1.5765143149087429e-01  1.3712729185332967e-01  1.3995864597496496e-01  2.5448242971236756e-01  1.8019010131028745e-01  9.5409321619200099e-02  7.2970535615690460e-02  6.4364347824278551e-02  6.0271066986014060e-02  5.8338593209788493e-02  5.7695283241447640e-02  5.7920512807894953e-02  5.8865797564189810e-02  6.0614151700277792e-02  6.3511303653217860e-02  6.8496479611958830e-02  7.8054564235740920e-02  9.7658406482158816e-02  1.2552625149224222e-01  1.2615588991388915e-01  1.2067480039068647e-01  1.3229040635426156e-01  1.5221443949887770e-01  1.7438329680236700e-01  1.9898136395024982e-01  2.2694574343120305e-01  2.5702081735393190e-01  2.8776693272564124e-01  3.1879090579253810e-01  3.4987001387878885e-01  3.8358058391268324e-01  4.2396234128473287e-01  4.7008564976180034e-01  5.1491785419575464e-01  5.3770076843446368e-01  5.2471985308702429e-01  3.8953165243416726e-01  8.3259233730695681e-01  8.4025809384902150e-01  7.5287153858758371e-01  6.7733670579502303e-01  6.1408374154381939e-01  5.5098337723267365e-01  4.9289716979489090e-01  4.4254787404705670e-01  4.0043570571438353e-01  3.6340123819886627e-01  3.2738231931681466e-01  2.8982809770347151e-01  2.5269822323852087e-01  2.1921372898544916e-01  1.9112690215136294e-01  1.6910259792636481e-01  1.5284299918898750e-01  1.4015668947491244e-01  1.2907057082721399e-01  1.2396118015446164e-01  1.3403032628054784e-01  1.5565080613094442e-01  1.5481835948018452e-01  1.3378879386036066e-01  1.1911348489463092e-01  1.1475050653385460e-01  1.1901866794965064e-01  1.2985860111990222e-01  1.3825434579115309e-01  1.3091436192040237e-01  1.1829047058066065e-01  1.1539081488814265e-01  1.2228275454598997e-01  1.3435946034432183e-01  1.4886690025571911e-01  1.6675183353526413e-01  1.9035272180502627e-01  2.2051423288669558e-01  2.5592983954153498e-01  2.9368278907766249e-01  3.3083253299739601e-01  3.6702002642019715e-01  4.0510704524539182e-01  4.4893371193626058e-01  5.0049533868387186e-01  5.5674137034280391e-01  6.1458562399924732e-01  6.7696209696863885e-01  7.5063608794873926e-01  8.4893553658731291e-01  7.9723446339752913e-01  9.2411904640466891e-01  9.3871111862928691e-01  8.9168857916449717e-01  8.1528517314293192e-01  7.3310495394876485e-01  6.6401732899562382e-01  5.9775457870013615e-01  5.3868816413641063e-01  4.8854113946016531e-01  4.4419286437987554e-01  4.0292121470523812e-01  3.6170985159720809e-01  3.1968282798491165e-01  2.7852502239327503e-01  2.4070261095097692e-01  2.0853613395211418e-01  1.8319330889772484e-01  1.6410124899221096e-01  1.4991408611940274e-01  1.3937344929955278e-01  1.3115274641528332e-01  1.2403161534588913e-01  1.1748865411296559e-01  1.1186410453561724e-01  1.0794215081138993e-01  1.0630989620238780e-01  1.0711884156636756e-01  1.1017763409443826e-01  1.1504232121379365e-01  1.2115929125905817e-01  1.2826159298101839e-01  1.3676340083193619e-01  1.4774275874018467e-01  1.6271370944724750e-01  1.8328677927162873e-01  2.1051465751839649e-01  2.4423948946780391e-01  2.8299618454398284e-01  3.2441837704514259e-01  3.6604451509282654e-01  4.0676422775887033e-01  4.4793652829738867e-01  4.9259299526222056e-01  5.4415543853566495e-01  6.0363786768339855e-01  6.6697712451910585e-01  7.3567095202967903e-01  8.2513247575849169e-01  9.0158479011040404e-01  9.4231930398171537e-01  9.1216369107865014e-01  9.4324659129284705e-01  9.6018716657658343e-01  9.3195518928974819e-01  8.7876014709906758e-01  8.0674654385011779e-01  7.4110561159111932e-01  6.8072218144788676e-01  6.2003923311757736e-01  5.6542475395905822e-01  5.1651446547153335e-01  4.7132600749998727e-01  4.2824858880532662e-01  3.8572386243656415e-01  3.4343197509973034e-01  3.0231006744339356e-01  2.6414373378950595e-01  2.3110749809757383e-01  2.0450045643029316e-01  1.8388259202725424e-01  1.6776011202863805e-01  1.5477227409405614e-01  1.4418561131363403e-01  1.3576879932699012e-01  1.2956192200778416e-01  1.2574063055765375e-01  1.2448660129570761e-01  1.2584158244791394e-01  1.2964882149097826e-01  1.3564005482273847e-01  1.4365716916837987e-01  1.5392141346360078e-01  1.6717021673234445e-01  1.8452034258976688e-01  2.0705379741276306e-01  2.3524422339390316e-01  2.6863160409610709e-01  3.0612831857953432e-01  3.4656358641671348e-01  3.8881206641344118e-01  4.3188448804338958e-01  4.7559024796920440e-01  5.2091238641983872e-01  5.6973977695626121e-01  6.2466587336020263e-01  6.8490660817930460e-01  7.4583315517705595e-01  8.1457253815529940e-01  8.8475977160880992e-01  9.3415213403274511e-01  9.6071804371769876e-01  9.4044737059970662e-01  9.4064137086610689e-01  9.6137758067267154e-01  9.3686144063182475e-01  8.9241659539004881e-01  8.3345346266512488e-01  7.7832897047689331e-01  7.2980046203844129e-01  6.7967082053506556e-01  6.3038650621180059e-01  5.8337249403190472e-01  5.3771961850665650e-01  4.9338422232154289e-01  4.5028318406946366e-01  4.0829026294110943e-01  3.6765105079965660e-01  3.2895828815352501e-01  2.9328291138562756e-01  2.6192031712856217e-01  2.3557213135952054e-01  2.1388740777427015e-01  1.9593411318044740e-01  1.8101757614776118e-01  1.6901818033633723e-01  1.6020912383326064e-01  1.5496232935286491e-01  1.5352769191006002e-01  1.5590682728629285e-01  1.6184236473930910e-01  1.7093831756459593e-01  1.8289072949894425e-01  1.9772594600273144e-01  2.1587508461432323e-01  2.3797769660384419e-01  2.6448928083423545e-01  2.9536344426058342e-01  3.3012589568759843e-01  3.6824588034422479e-01  4.0924632327690880e-01  4.5242427787570971e-01  4.9682772809289566e-01  5.4177389422932742e-01  5.8718423833614908e-01  6.3378733311058832e-01  6.8325146631387224e-01  7.3461951057006858e-01  7.8438446972093689e-01  8.3897804524566255e-01  8.9487554793845092e-01  9.3668542696539614e-01  9.6093738806150464e-01  9.4335625002585843e-01  9.1269135175922689e-01  9.4531421479074151e-01  9.1619501612637821e-01  8.7088428904964588e-01  8.2013568805316872e-01  7.8002900192389035e-01  7.4486939935371088e-01  7.0790551487795206e-01  6.7056416272163089e-01  6.3282324407054835e-01  5.9345250342744527e-01  5.5276572302157179e-01  5.1166537034917670e-01  4.7105972891353270e-01  4.3186350825580494e-01  3.9479177597699278e-01  3.6041052740880297e-01  3.2931314965020786e-01  3.0191222141223745e-01  2.7808600391456700e-01  2.5730539741655223e-01  2.3921653952701788e-01  2.2406093572756633e-01  2.1259108172702101e-01  2.0567006699817136e-01  2.0385396061208136e-01  2.0714320225156582e-01  2.1499253296858378e-01  2.2656440299943179e-01  2.4111047472649044e-01  2.5830299612942953e-01  2.7832967345523396e-01  3.0167527246773962e-01  3.2873282322179920e-01  3.5955509491356452e-01  3.9393434311972508e-01  4.3156732216542854e-01  4.7192192192599003e-01  5.1394975168975421e-01  5.5616511114687284e-01  5.9718425334687808e-01  6.3621352894660133e-01  6.7350116985706221e-01  7.1089840837441609e-01  7.4962480082580252e-01  7.8693611803175079e-01  8.2638921402745624e-01  8.7221709111065882e-01  9.1280733611152520e-01  9.4277474318494792e-01  9.2471712345978907e-01  7.9595729292551276e-01  8.6854010581346908e-01  8.2254595250265583e-01  7.8941219289162046e-01  7.6602648145789209e-01  7.4622896662972638e-01  7.2613973300179069e-01  7.0490897421458554e-01  6.8304013826419974e-01  6.5888153955075746e-01  6.3086552793631101e-01  5.9913569572778458e-01  5.6469372455094280e-01  5.2886866400589005e-01  4.9311128961392553e-01  4.5869537949212191e-01  4.2657927073732260e-01  3.9745573699681552e-01  3.7170748117041164e-01  3.4926162742982131e-01  3.2966325765626464e-01  3.1249174740205954e-01  2.9782495316459062e-01  2.8636196642011336e-01  2.7910945995854897e-01  2.7685358419268463e-01  2.7974313168707921e-01  2.8722773155994835e-01  2.9837507308314426e-01  3.1236066847317590e-01  3.2884443000699748e-01  3.4802976513611350e-01  3.7039251038595211e-01  3.9628061211486582e-01  4.2566920071529524e-01  4.5819623535746345e-01  4.9327276186147651e-01  5.2999270391972420e-01  5.6695684789574829e-01  6.0236810153473652e-01  6.3451816836650188e-01  6.6236738508212356e-01  6.8593143696689007e-01  7.0722814973494597e-01  7.2975506759411035e-01  7.5326887359135053e-01  7.7510973268638828e-01  7.9592695572872507e-01  8.2864186371534754e-01  8.6485144186713736e-01  8.3525779635023178e-01  3.8793175116744305e-01  5.7278501692375650e-01  6.2437410720472430e-01  6.5520059477272030e-01  6.7306941089601913e-01  6.8045674158594327e-01  6.8031671952377204e-01  6.7765772446369188e-01  6.7314180706676763e-01  6.6431402644191839e-01  6.4959329202401006e-01  6.2927742716799673e-01  6.045928227