<?xml version="1.0"?>
<VTKFile type="UnstructuredGrid"  version="0.1"  >
<UnstructuredGrid>
<Piece  NumberOfPoints="2601" NumberOfCells="5000">
<Points>
<DataArray  type="Float64"  NumberOfComponents="3"  format="ascii">0 0 0  0.03 0 0  0.06 0 0  0.09 0 0  0.12 0 0  0.15 0 0  0.18 0 0  0.21 0 0  0.24 0 0  0.27 0 0  0.3 0 0  0.33 0 0  0.36 0 0  0.39 0 0  0.42 0 0  0.45 0 0  0.48 0 0  0.51 0 0  0.54 0 0  0.57 0 0  0.6 0 0  0.63 0 0  0.66 0 0  0.6899999999999999 0 0  0.72 0 0  0.75 0 0  0.78 0 0  0.8100000000000001 0 0  0.84 0 0  0.87 0 0  0.9 0 0  0.93 0 0  0.96 0 0  0.99 0 0  1.02 0 0  1.05 0 0  1.08 0 0  1.11 0 0  1.14 0 0  1.17 0 0  1.2 0 0  1.23 0 0  1.26 0 0  1.29 0 0  1.32 0 0  1.35 0 0  1.38 0 0  1.41 0 0  1.44 0 0  1.47 0 0  1.5 0 0  0 0.02 0  0.03 0.02 0  0.06 0.02 0  0.09 0.02 0  0.12 0.02 0  0.15 0.02 0  0.18 0.02 0  0.21 0.02 0  0.24 0.02 0  0.27 0.02 0  0.3 0.02 0  0.33 0.02 0  0.36 0.02 0  0.39 0.02 0  0.42 0.02 0  0.45 0.02 0  0.48 0.02 0  0.51 0.02 0  0.54 0.02 0  0.57 0.02 0  0.6 0.02 0  0.63 0.02 0  0.66 0.02 0  0.6899999999999999 0.02 0  0.72 0.02 0  0.75 0.02 0  0.78 0.02 0  0.8100000000000001 0.02 0  0.84 0.02 0  0.87 0.02 0  0.9 0.02 0  0.93 0.02 0  0.96 0.02 0  0.99 0.02 0  1.02 0.02 0  1.05 0.02 0  1.08 0.02 0  1.11 0.02 0  1.14 0.02 0  1.17 0.02 0  1.2 0.02 0  1.23 0.02 0  1.26 0.02 0  1.29 0.02 0  1.32 0.02 0  1.35 0.02 0  1.38 0.02 0  1.41 0.02 0  1.44 0.02 0  1.47 0.02 0  1.5 0.02 0  0 0.04 0  0.03 0.04 0  0.06 0.04 0  0.09 0.04 0  0.12 0.04 0  0.15 0.04 0  0.18 0.04 0  0.21 0.04 0  0.24 0.04 0  0.27 0.04 0  0.3 0.04 0  0.33 0.04 0  0.36 0.04 0  0.39 0.04 0  0.42 0.04 0  0.45 0.04 0  0.48 0.04 0  0.51 0.04 0  0.54 0.04 0  0.57 0.04 0  0.6 0.04 0  0.63 0.04 0  0.66 0.04 0  0.6899999999999999 0.04 0  0.72 0.04 0  0.75 0.04 0  0.78 0.04 0  0.8100000000000001 0.04 0  0.84 0.04 0  0.87 0.04 0  0.9 0.04 0  0.93 0.04 0  0.96 0.04 0  0.99 0.04 0  1.02 0.04 0  1.05 0.04 0  1.08 0.04 0  1.11 0.04 0  1.14 0.04 0  1.17 0.04 0  1.2 0.04 0  1.23 0.04 0  1.26 0.04 0  1.29 0.04 0  1.32 0.04 0  1.35 0.04 0  1.38 0.04 0  1.41 0.04 0  1.44 0.04 0  1.47 0.04 0  1.5 0.04 0  0 0.06 0  0.03 0.06 0  0.06 0.06 0  0.09 0.06 0  0.12 0.06 0  0.15 0.06 0  0.18 0.06 0  0.21 0.06 0  0.24 0.06 0  0.27 0.06 0  0.3 0.06 0  0.33 0.06 0  0.36 0.06 0  0.39 0.06 0  0.42 0.06 0  0.45 0.06 0  0.48 0.06 0  0.51 0.06 0  0.54 0.06 0  0.57 0.06 0  0.6 0.06 0  0.63 0.06 0  0.66 0.06 0  0.6899999999999999 0.06 0  0.72 0.06 0  0.75 0.06 0  0.78 0.06 0  0.8100000000000001 0.06 0  0.84 0.06 0  0.87 0.06 0  0.9 0.06 0  0.93 0.06 0  0.96 0.06 0  0.99 0.06 0  1.02 0.06 0  1.05 0.06 0  1.08 0.06 0  1.11 0.06 0  1.14 0.06 0  1.17 0.06 0  1.2 0.06 0  1.23 0.06 0  1.26 0.06 0  1.29 0.06 0  1.32 0.06 0  1.35 0.06 0  1.38 0.06 0  1.41 0.06 0  1.44 0.06 0  1.47 0.06 0  1.5 0.06 0  0 0.08 0  0.03 0.08 0  0.06 0.08 0  0.09 0.08 0  0.12 0.08 0  0.15 0.08 0  0.18 0.08 0  0.21 0.08 0  0.24 0.08 0  0.27 0.08 0  0.3 0.08 0  0.33 0.08 0  0.36 0.08 0  0.39 0.08 0  0.42 0.08 0  0.45 0.08 0  0.48 0.08 0  0.51 0.08 0  0.54 0.08 0  0.57 0.08 0  0.6 0.08 0  0.63 0.08 0  0.66 0.08 0  0.6899999999999999 0.08 0  0.72 0.08 0  0.75 0.08 0  0.78 0.08 0  0.8100000000000001 0.08 0  0.84 0.08 0  0.87 0.08 0  0.9 0.08 0  0.93 0.08 0  0.96 0.08 0  0.99 0.08 0  1.02 0.08 0  1.05 0.08 0  1.08 0.08 0  1.11 0.08 0  1.14 0.08 0  1.17 0.08 0  1.2 0.08 0  1.23 0.08 0  1.26 0.08 0  1.29 0.08 0  1.32 0.08 0  1.35 0.08 0  1.38 0.08 0  1.41 0.08 0  1.44 0.08 0  1.47 0.08 0  1.5 0.08 0  0 0.1 0  0.03 0.1 0  0.06 0.1 0  0.09 0.1 0  0.12 0.1 0  0.15 0.1 0  0.18 0.1 0  0.21 0.1 0  0.24 0.1 0  0.27 0.1 0  0.3 0.1 0  0.33 0.1 0  0.36 0.1 0  0.39 0.1 0  0.42 0.1 0  0.45 0.1 0  0.48 0.1 0  0.51 0.1 0  0.54 0.1 0  0.57 0.1 0  0.6 0.1 0  0.63 0.1 0  0.66 0.1 0  0.6899999999999999 0.1 0  0.72 0.1 0  0.75 0.1 0  0.78 0.1 0  0.8100000000000001 0.1 0  0.84 0.1 0  0.87 0.1 0  0.9 0.1 0  0.93 0.1 0  0.96 0.1 0  0.99 0.1 0  1.02 0.1 0  1.05 0.1 0  1.08 0.1 0  1.11 0.1 0  1.14 0.1 0  1.17 0.1 0  1.2 0.1 0  1.23 0.1 0  1.26 0.1 0  1.29 0.1 0  1.32 0.1 0  1.35 0.1 0  1.38 0.1 0  1.41 0.1 0  1.44 0.1 0  1.47 0.1 0  1.5 0.1 0  0 0.12 0  0.03 0.12 0  0.06 0.12 0  0.09 0.12 0  0.12 0.12 0  0.15 0.12 0  0.18 0.12 0  0.21 0.12 0  0.24 0.12 0  0.27 0.12 0  0.3 0.12 0  0.33 0.12 0  0.36 0.12 0  0.39 0.12 0  0.42 0.12 0  0.45 0.12 0  0.48 0.12 0  0.51 0.12 0  0.54 0.12 0  0.57 0.12 0  0.6 0.12 0  0.63 0.12 0  0.66 0.12 0  0.6899999999999999 0.12 0  0.72 0.12 0  0.75 0.12 0  0.78 0.12 0  0.8100000000000001 0.12 0  0.84 0.12 0  0.87 0.12 0  0.9 0.12 0  0.93 0.12 0  0.96 0.12 0  0.99 0.12 0  1.02 0.12 0  1.05 0.12 0  1.08 0.12 0  1.11 0.12 0  1.14 0.12 0  1.17 0.12 0  1.2 0.12 0  1.23 0.12 0  1.26 0.12 0  1.29 0.12 0  1.32 0.12 0  1.35 0.12 0  1.38 0.12 0  1.41 0.12 0  1.44 0.12 0  1.47 0.12 0  1.5 0.12 0  0 0.14 0  0.03 0.14 0  0.06 0.14 0  0.09 0.14 0  0.12 0.14 0  0.15 0.14 0  0.18 0.14 0  0.21 0.14 0  0.24 0.14 0  0.27 0.14 0  0.3 0.14 0  0.33 0.14 0  0.36 0.14 0  0.39 0.14 0  0.42 0.14 0  0.45 0.14 0  0.48 0.14 0  0.51 0.14 0  0.54 0.14 0  0.57 0.14 0  0.6 0.14 0  0.63 0.14 0  0.66 0.14 0  0.6899999999999999 0.14 0  0.72 0.14 0  0.75 0.14 0  0.78 0.14 0  0.8100000000000001 0.14 0  0.84 0.14 0  0.87 0.14 0  0.9 0.14 0  0.93 0.14 0  0.96 0.14 0  0.99 0.14 0  1.02 0.14 0  1.05 0.14 0  1.08 0.14 0  1.11 0.14 0  1.14 0.14 0  1.17 0.14 0  1.2 0.14 0  1.23 0.14 0  1.26 0.14 0  1.29 0.14 0  1.32 0.14 0  1.35 0.14 0  1.38 0.14 0  1.41 0.14 0  1.44 0.14 0  1.47 0.14 0  1.5 0.14 0  0 0.16 0  0.03 0.16 0  0.06 0.16 0  0.09 0.16 0  0.12 0.16 0  0.15 0.16 0  0.18 0.16 0  0.21 0.16 0  0.24 0.16 0  0.27 0.16 0  0.3 0.16 0  0.33 0.16 0  0.36 0.16 0  0.39 0.16 0  0.42 0.16 0  0.45 0.16 0  0.48 0.16 0  0.51 0.16 0  0.54 0.16 0  0.57 0.16 0  0.6 0.16 0  0.63 0.16 0  0.66 0.16 0  0.6899999999999999 0.16 0  0.72 0.16 0  0.75 0.16 0  0.78 0.16 0  0.8100000000000001 0.16 0  0.84 0.16 0  0.87 0.16 0  0.9 0.16 0  0.93 0.16 0  0.96 0.16 0  0.99 0.16 0  1.02 0.16 0  1.05 0.16 0  1.08 0.16 0  1.11 0.16 0  1.14 0.16 0  1.17 0.16 0  1.2 0.16 0  1.23 0.16 0  1.26 0.16 0  1.29 0.16 0  1.32 0.16 0  1.35 0.16 0  1.38 0.16 0  1.41 0.16 0  1.44 0.16 0  1.47 0.16 0  1.5 0.16 0  0 0.18 0  0.03 0.18 0  0.06 0.18 0  0.09 0.18 0  0.12 0.18 0  0.15 0.18 0  0.18 0.18 0  0.21 0.18 0  0.24 0.18 0  0.27 0.18 0  0.3 0.18 0  0.33 0.18 0  0.36 0.18 0  0.39 0.18 0  0.42 0.18 0  0.45 0.18 0  0.48 0.18 0  0.51 0.18 0  0.54 0.18 0  0.57 0.18 0  0.6 0.18 0  0.63 0.18 0  0.66 0.18 0  0.6899999999999999 0.18 0  0.72 0.18 0  0.75 0.18 0  0.78 0.18 0  0.8100000000000001 0.18 0  0.84 0.18 0  0.87 0.18 0  0.9 0.18 0  0.93 0.18 0  0.96 0.18 0  0.99 0.18 0  1.02 0.18 0  1.05 0.18 0  1.08 0.18 0  1.11 0.18 0  1.14 0.18 0  1.17 0.18 0  1.2 0.18 0  1.23 0.18 0  1.26 0.18 0  1.29 0.18 0  1.32 0.18 0  1.35 0.18 0  1.38 0.18 0  1.41 0.18 0  1.44 0.18 0  1.47 0.18 0  1.5 0.18 0  0 0.2 0  0.03 0.2 0  0.06 0.2 0  0.09 0.2 0  0.12 0.2 0  0.15 0.2 0  0.18 0.2 0  0.21 0.2 0  0.24 0.2 0  0.27 0.2 0  0.3 0.2 0  0.33 0.2 0  0.36 0.2 0  0.39 0.2 0  0.42 0.2 0  0.45 0.2 0  0.48 0.2 0  0.51 0.2 0  0.54 0.2 0  0.57 0.2 0  0.6 0.2 0  0.63 0.2 0  0.66 0.2 0  0.6899999999999999 0.2 0  0.72 0.2 0  0.75 0.2 0  0.78 0.2 0  0.8100000000000001 0.2 0  0.84 0.2 0  0.87 0.2 0  0.9 0.2 0  0.93 0.2 0  0.96 0.2 0  0.99 0.2 0  1.02 0.2 0  1.05 0.2 0  1.08 0.2 0  1.11 0.2 0  1.14 0.2 0  1.17 0.2 0  1.2 0.2 0  1.23 0.2 0  1.26 0.2 0  1.29 0.2 0  1.32 0.2 0  1.35 0.2 0  1.38 0.2 0  1.41 0.2 0  1.44 0.2 0  1.47 0.2 0  1.5 0.2 0  0 0.22 0  0.03 0.22 0  0.06 0.22 0  0.09 0.22 0  0.12 0.22 0  0.15 0.22 0  0.18 0.22 0  0.21 0.22 0  0.24 0.22 0  0.27 0.22 0  0.3 0.22 0  0.33 0.22 0  0.36 0.22 0  0.39 0.22 0  0.42 0.22 0  0.45 0.22 0  0.48 0.22 0  0.51 0.22 0  0.54 0.22 0  0.57 0.22 0  0.6 0.22 0  0.63 0.22 0  0.66 0.22 0  0.6899999999999999 0.22 0  0.72 0.22 0  0.75 0.22 0  0.78 0.22 0  0.8100000000000001 0.22 0  0.84 0.22 0  0.87 0.22 0  0.9 0.22 0  0.93 0.22 0  0.96 0.22 0  0.99 0.22 0  1.02 0.22 0  1.05 0.22 0  1.08 0.22 0  1.11 0.22 0  1.14 0.22 0  1.17 0.22 0  1.2 0.22 0  1.23 0.22 0  1.26 0.22 0  1.29 0.22 0  1.32 0.22 0  1.35 0.22 0  1.38 0.22 0  1.41 0.22 0  1.44 0.22 0  1.47 0.22 0  1.5 0.22 0  0 0.24 0  0.03 0.24 0  0.06 0.24 0  0.09 0.24 0  0.12 0.24 0  0.15 0.24 0  0.18 0.24 0  0.21 0.24 0  0.24 0.24 0  0.27 0.24 0  0.3 0.24 0  0.33 0.24 0  0.36 0.24 0  0.39 0.24 0  0.42 0.24 0  0.45 0.24 0  0.48 0.24 0  0.51 0.24 0  0.54 0.24 0  0.57 0.24 0  0.6 0.24 0  0.63 0.24 0  0.66 0.24 0  0.6899999999999999 0.24 0  0.72 0.24 0  0.75 0.24 0  0.78 0.24 0  0.8100000000000001 0.24 0  0.84 0.24 0  0.87 0.24 0  0.9 0.24 0  0.93 0.24 0  0.96 0.24 0  0.99 0.24 0  1.02 0.24 0  1.05 0.24 0  1.08 0.24 0  1.11 0.24 0  1.14 0.24 0  1.17 0.24 0  1.2 0.24 0  1.23 0.24 0  1.26 0.24 0  1.29 0.24 0  1.32 0.24 0  1.35 0.24 0  1.38 0.24 0  1.41 0.24 0  1.44 0.24 0  1.47 0.24 0  1.5 0.24 0  0 0.26 0  0.03 0.26 0  0.06 0.26 0  0.09 0.26 0  0.12 0.26 0  0.15 0.26 0  0.18 0.26 0  0.21 0.26 0  0.24 0.26 0  0.27 0.26 0  0.3 0.26 0  0.33 0.26 0  0.36 0.26 0  0.39 0.26 0  0.42 0.26 0  0.45 0.26 0  0.48 0.26 0  0.51 0.26 0  0.54 0.26 0  0.57 0.26 0  0.6 0.26 0  0.63 0.26 0  0.66 0.26 0  0.6899999999999999 0.26 0  0.72 0.26 0  0.75 0.26 0  0.78 0.26 0  0.8100000000000001 0.26 0  0.84 0.26 0  0.87 0.26 0  0.9 0.26 0  0.93 0.26 0  0.96 0.26 0  0.99 0.26 0  1.02 0.26 0  1.05 0.26 0  1.08 0.26 0  1.11 0.26 0  1.14 0.26 0  1.17 0.26 0  1.2 0.26 0  1.23 0.26 0  1.26 0.26 0  1.29 0.26 0  1.32 0.26 0  1.35 0.26 0  1.38 0.26 0  1.41 0.26 0  1.44 0.26 0  1.47 0.26 0  1.5 0.26 0  0 0.28 0  0.03 0.28 0  0.06 0.28 0  0.09 0.28 0  0.12 0.28 0  0.15 0.28 0  0.18 0.28 0  0.21 0.28 0  0.24 0.28 0  0.27 0.28 0  0.3 0.28 0  0.33 0.28 0  0.36 0.28 0  0.39 0.28 0  0.42 0.28 0  0.45 0.28 0  0.48 0.28 0  0.51 0.28 0  0.54 0.28 0  0.57 0.28 0  0.6 0.28 0  0.63 0.28 0  0.66 0.28 0  0.6899999999999999 0.28 0  0.72 0.28 0  0.75 0.28 0  0.78 0.28 0  0.8100000000000001 0.28 0  0.84 0.28 0  0.87 0.28 0  0.9 0.28 0  0.93 0.28 0  0.96 0.28 0  0.99 0.28 0  1.02 0.28
[...]
<PointData  Scalars="ControlVisualisation"> 
<DataArray  type="Float64"  Name="ControlVisualisation"  format="ascii">9.3627444441215110e-02  5.9010817855430497e-02  5.9125119825769595e-02  5.9358272477284958e-02  5.9741756185903189e-02  6.0265123632966974e-02  6.0878627535237033e-02  6.1515288547338259e-02  6.2117378115223922e-02  6.2646214320736263e-02  6.3080708041036271e-02  6.3416053655700272e-02  6.3662504073173434e-02  6.3840620283041827e-02  6.3973842222381894e-02  6.4082099570674719e-02  6.4178765772558974e-02  6.4270679127830105e-02  6.4359748635135758e-02  6.4444842691386506e-02  6.4523302902567650e-02  6.4591944849400215e-02  6.4647661884098734e-02  6.4687797254706955e-02  6.4710398095696148e-02  6.4714395973700309e-02  6.4699714907580474e-02  6.4667295456392909e-02  6.4619031046551464e-02  6.4557623671272435e-02  6.4486362735086344e-02  6.4408796609288471e-02  6.4328197591834391e-02  6.4246648657295541e-02  6.4163586777362475e-02  6.4073841049166830e-02  6.3965697375320318e-02  6.3820222235539084e-02  6.3613468122104430e-02  6.3322213934341856e-02  6.2931266204994923e-02  6.2438243720424065e-02  6.1854552149469007e-02  6.1208270530946574e-02  6.0552289964619796e-02  5.9962326998519569e-02  5.9505096531055235e-02  5.9205532076845223e-02  5.9048642478295214e-02  5.8976890391590320e-02  2.2021313654061919e-01  5.8989573594869366e-02  3.2546751442419961e-02  3.2712951740491381e-02  3.3145680406079125e-02  3.3928002148326773e-02  3.5032984702458671e-02  3.6345222665625551e-02  3.7717953952145111e-02  3.9025909387797209e-02  4.0184467091946556e-02  4.1144564808074199e-02  4.1889844938766505e-02  4.2437545094490339e-02  4.2831234804235375e-02  4.3124369262722374e-02  4.3364089356187963e-02  4.3582587935238462e-02  4.3796298951838383e-02  4.4009413636697095e-02  4.4218404708882338e-02  4.4415796112088068e-02  4.4592719511912383e-02  4.4740475535859983e-02  4.4851495827124575e-02  4.4920005110941047e-02  4.4942508972340603e-02  4.4918106009666781e-02  4.4848580457655184e-02  4.4738253952549059e-02  4.4593618958963910e-02  4.4422790211681759e-02  4.4234746528343652e-02  4.4038177361717348e-02  4.3839562409610316e-02  4.3640079572260508e-02  4.3431320510803839e-02  4.3190833342898333e-02  4.2880156288590085e-02  4.2449229778730099e-02  4.1849280319908568e-02  4.1049772754544946e-02  4.0048348527286386e-02  3.8868286620163700e-02  3.7554762636365785e-02  3.6186050761776764e-02  3.4887426924941949e-02  3.3808877516590764e-02  3.3066137018366373e-02  3.2676458405374295e-02  3.2540069538097856e-02  5.8973507917946366e-02  5.9018525918596472e-02  3.2597523507179184e-02  3.2895065168113996e-02  3.3687909844093630e-02  3.5132243167032326e-02  3.7148161053893458e-02  3.9536472021078184e-02  4.2106174041838196e-02  4.4698270113348225e-02  4.7159408082145741e-02  4.9324709227756565e-02  5.1052373290004553e-02  5.2288196885166456e-02  5.3090226259441903e-02  5.3587868388956093e-02  5.3917801909385214e-02  5.4182578044211727e-02  5.4440702977561352e-02  5.4714678845486364e-02  5.5003635209118426e-02  5.5294125670496359e-02  5.5567566017101624e-02  5.5804836528147883e-02  5.5989033085057704e-02  5.6107169027863925e-02  5.6151274996606562e-02  5.6119047616101911e-02  5.6014046943158549e-02  5.5845419800514592e-02  5.5627149522517627e-02  5.5376796166099633e-02  5.5113505616313473e-02  5.4854714463811211e-02  5.4610586714110704e-02  5.4375137982419428e-02  5.4113947810758053e-02  5.3751608914995516e-02  5.3168736308887549e-02  5.2224965130218390e-02  5.0816261375687503e-02  4.8938783846706441e-02  4.6699533667874514e-02  4.4256166355620498e-02  4.1746647537531975e-02  3.9282288105044853e-02  3.6984176338751396e-02  3.5017172702911048e-02  3.3602011170544052e-02  3.2849741752500800e-02  3.2583896639564493e-02  5.9003165864453602e-02  5.9032064820623467e-02  3.2686892077292806e-02  3.3291536609164021e-02  3.4883109370833464e-02  3.7604359474095211e-02  4.1182687504327735e-02  4.5510127455598279e-02  5.0691239831141821e-02  5.6782827073194125e-02  6.3525661778491671e-02  7.0150510475075492e-02  7.5534932809800295e-02  7.8853428030934314e-02  8.0123625081724256e-02  8.0018264655882590e-02  7.9298810643231368e-02  7.8484735893390348e-02  7.7829935284906601e-02  7.7413167270103764e-02  7.7222390105580824e-02  7.7206751343869645e-02  7.7303759548628254e-02  7.7452586382019059e-02  7.7600849701339347e-02  7.7708717800254110e-02  7.7751827529129638e-02  7.7723220036271246e-02  7.7634049020638543e-02  7.7512928833392364e-02  7.7404094932149808e-02  7.7364627743874925e-02  7.7460438988973784e-02  7.7759189188366634e-02  7.8315507960786498e-02  7.9139700016256337e-02  8.0136925412628054e-02  8.1008963945245011e-02  8.1155540017931529e-02  7.9729568347740337e-02  7.6061762797396223e-02  7.0281813373034643e-02  6.3381596659691133e-02  5.6514814613070632e-02  5.0376063862453725e-02  4.5190643809635944e-02  4.0916694923653116e-02  3.7408202379257273e-02  3.4705088524441180e-02  3.3179393207258039e-02  3.2652849230563399e-02  5.9027124275187831e-02  5.9016772459336959e-02  3.2879891910877999e-02  3.4577143931558592e-02  3.8680787783838322e-02  4.4669923607219594e-02  5.1906329225983913e-02  6.0258166611589996e-02  6.9542482560813829e-02  7.9328263754280717e-02  8.8806977183690378e-02  9.6738026233155389e-02  1.0194784844439711e-01  1.0412417136212178e-01  1.0396139334861525e-01  1.0254409283694721e-01  1.0075528846146251e-01  9.9102730715714848e-02  9.7798053948342123e-02  9.6880130559483857e-02  9.6304860616485882e-02  9.5996753912427804e-02  9.5875177588448504e-02  9.5866679601829569e-02  9.5910590345109875e-02  9.5961864937091718e-02  9.5992934032654700e-02  9.5994974740586270e-02  9.5978442851235357e-02  9.5972750031281820e-02  9.6025248931677340e-02  9.6199729288483665e-02  9.6574004202936201e-02  9.7234659208002838e-02  9.8264650861680958e-02  9.9716048893356835e-02  1.0155569184472496e-01  1.0356942046837986e-01  1.0522871538149850e-01  1.0560368593866090e-01  1.0355147038733623e-01  9.8352991723486854e-02  9.0344846177082092e-02  8.0706831066925971e-02  7.0610906011679381e-02  6.0841752712492078e-02  5.1965697495486761e-02  4.4492996513184814e-02  3.8406934761017066e-02  3.4223936243931732e-02  3.2774670804292645e-02  5.9020148235742836e-02  5.9059893714488547e-02  3.3689108366855396e-02  3.9717487950230446e-02  5.1525561146889248e-02  6.6875779899021742e-02  8.3600417527408127e-02  9.9496785920327652e-02  1.1290865230393374e-01  1.2336276548217266e-01  1.3108594166767773e-01  1.3633135504555582e-01  1.3926108647830257e-01  1.4017631027530336e-01  1.3960735770522681e-01  1.3816562882581057e-01  1.3636204601510846e-01  1.3453303825266452e-01  1.3286057774804347e-01  1.3142292153525856e-01  1.3023835788537474e-01  1.2929498226912597e-01  1.2857009683395962e-01  1.2804147146373140e-01  1.2769184709711076e-01  1.2750940727769372e-01  1.2748706360741349e-01  1.2762194089497134e-01  1.2791521147360096e-01  1.2837221213956096e-01  1.2900303503228772e-01  1.2982348666282228e-01  1.3085484446072554e-01  1.3211922088021383e-01  1.3362800012417014e-01  1.3536317194320485e-01  1.3724997442709505e-01  1.3911518265135375e-01  1.4063470186954663e-01  1.4130777975042269e-01  1.4052553612314614e-01  1.3775330306194761e-01  1.3269076694816251e-01  1.2519198487049638e-01  1.1501045810237122e-01  1.0178630024782569e-01  8.5525982271573348e-02  6.8266036227594695e-02  5.1737959907229611e-02  3.8818421430199007e-02  3.3170416025668718e-02  5.8991243349891725e-02  5.9911533006596518e-02  3.8082004166280006e-02  5.9992137424002438e-02  9.9814146902471479e-02  1.4893686941713086e-01  1.8587621455494799e-01  2.0398278922723767e-01  2.0971144508416539e-01  2.0914546347828097e-01  2.0629175180632831e-01  2.0340285279383533e-01  2.0126299111449980e-01  1.9988067437497781e-01  1.9902165037507058e-01  1.9840870596629739e-01  1.9777352783852550e-01  1.9690374261028173e-01  1.9569379881061610e-01  1.9416069340217698e-01  1.9241522873816053e-01  1.9061391187130600e-01  1.8891830312474123e-01  1.8747106069673813e-01  1.8638519421702623e-01  1.8574076467487768e-01  1.8558504366308240e-01  1.8593354422965713e-01  1.8677020972736691e-01  1.8804614242797266e-01  1.8967757708032745e-01  1.9154489590872575e-01  1.9349524410782631e-01  1.9535272044725141e-01  1.9694281176480244e-01  1.9813696522906421e-01  1.9890924148457362e-01  1.9937353315224760e-01  1.9976763854107943e-01  2.0039314001920128e-01  2.0156899562733877e-01  2.0362241694409475e-01  2.0678206433274193e-01  2.1065966858212667e-01  2.1315392663149010e-01  2.0921778762890661e-01  1.9104927857134757e-01  1.5504891965937473e-01  1.0567146089738343e-01  6.3448945161302658e-02  3.6875084637658831e-02  5.9041289547533030e-02  6.4390405657961530e-02  6.0814401255849554e-02  1.7400513684781416e-01  2.8357839530825457e-01  2.7883513016179168e-01  2.7513921590588841e-01  2.7098797296832444e-01  2.6585854897111028e-01  2.5974998520115028e-01  2.5323544326864400e-01  2.4702502938377471e-01  2.4156193589452496e-01  2.3704913217591300e-01  2.3357348732577515e-01  2.3111758531810117e-01  2.2952506929197131e-01  2.2852219280793312e-01  2.2780383558893086e-01  2.2712716157008256e-01  2.2636260460635949e-01  2.2549255292090087e-01  2.2457805073669809e-01  2.2371829911769767e-01  2.2301750204342430e-01  2.2256292167119870e-01  2.2241246221988975e-01  2.2258870714270662e-01  2.2307696137678568e-01  2.2382629813252930e-01  2.2475428843019205e-01  2.2575755685555482e-01  2.2673111681436794e-01  2.2759884010029768e-01  2.2835355278514149e-01  2.2909559196070145e-01  2.3004532875561465e-01  2.3150221094262974e-01  2.3374938530901651e-01  2.3695508373124405e-01  2.4115366416023606e-01  2.4633921385586199e-01  2.5256697239698683e-01  2.5984263816921249e-01  2.6772429905031608e-01  2.7486861445967270e-01  2.7865992294200986e-01  2.7408541890945992e-01  2.5511710216736733e-01  2.0553049819098768e-01  6.1105816137240795e-02  6.0080882209873177e-02  9.5757308798844837e-02  1.6532242044982176e-01  2.7917807130623978e-01  3.2863589816997002e-01  3.4631067667874266e-01  3.5062294804281319e-01  3.4817242379468083e-01  3.4175811925793587e-01  3.3294800830402577e-01  3.2280195614016782e-01  3.1201280669450476e-01  3.0103924963699052e-01  2.9024770795379196e-01  2.7998778699591170e-01  2.7057174426940611e-01  2.6221587642073474e-01  2.5501102236011786e-01  2.4894012091387732e-01  2.4392062160460470e-01  2.3984411882891976e-01  2.3660074599399977e-01  2.3409032441076139e-01  2.3222703624178032e-01  2.3094228937732741e-01  2.3018718519660947e-01  2.2993438373008923e-01  2.3017897609713522e-01  2.3093821460391348e-01  2.3225009788415321e-01  2.3417086718930813e-01  2.3677164382460403e-01  2.4013482106603309e-01  2.4435100324888231e-01  2.4951606129353637e-01  2.5572411631690950e-01  2.6304753117434410e-01  2.7149565622583344e-01  2.8095780070931103e-01  2.9116084395134845e-01  3.0168731135488824e-01  3.1207296912042531e-01  3.2192672235840403e-01  3.3094827109732061e-01  3.3879162093859783e-01  3.4470497654484988e-01  3.4706782130651320e-01  3.4158072449648036e-01  3.2341186504475372e-01  2.8216896267856845e-01  1.9675512471114442e-01  8.1877606768801195e-02  4.4467149282338314e-01  4.8074594578698177e-01  5.6641344834888863e-01  5.3511129244035960e-01  5.2073241815166327e-01  4.9925933305000403e-01  4.7902975196871878e-01  4.6035047078178054e-01  4.4256540235598063e-01  4.2507879852061564e-01  4.0763933605729313e-01  3.9029003024470282e-01  3.7324244266822748e-01  3.5679063748193796e-01  3.4124069504826632e-01  3.2685427185798799e-01  3.1381872217136686e-01  3.0224503428185517e-01  2.9218174239758460e-01  2.8363151950268994e-01  2.7656413642184380e-01  2.7092633015949086e-01  2.6665147861156852e-01  2.6367066549236634e-01  2.6192447146285097e-01  2.6137347001740568e-01  2.6200528407257678e-01  2.6383676062764394e-01  2.6691087395761548e-01  2.7128906325158902e-01  2.7704065390774002e-01  2.8423158631575729e-01  2.9291447282360589e-01  3.0312043352859036e-01  3.1485006128380016e-01  3.2805768828230436e-01  3.4262362635127841e-01  3.5831774812342188e-01  3.7477575225161947e-01  3.9152898738689090e-01  4.0813125493387414e-01  4.2439098475594772e-01  4.4063201463828205e-01  4.5780367631562546e-01  4.7695122236902082e-01  4.9801247780231700e-01  5.1828370376758437e-01  5.3647520549590377e-01  5.3215125475083924e-01  5.2310770157282593e-01  3.5728455636046591e-01  8.8807694065674825e-01  9.1470556016122662e-01  8.2989358194849761e-01  7.3449370782657042e-01  6.7749850152783908e-01  6.3547483427068419e-01  6.0212694654752463e-01  5.7361106149278074e-01  5.4863232930126404e-01  5.2562979663504183e-01  5.0349638395866891e-01  4.8183129356607057e-01  4.6068803851931395e-01  4.4030467547551505e-01  4.2094629940335732e-01  4.0284177706679203e-01  3.8617040344885789e-01  3.7106814533072885e-01  3.5763728948161838e-01  3.4595277364821930e-01  3.3606466888728470e-01  3.2799943666163367e-01  3.2176283974182662e-01  3.1734579407255475e-01  3.1473246613705280e-01  3.1390858512225778e-01  3.1486762169328764e-01  3.1761308932199406e-01  3.2215642122367222e-01  3.2851123219646161e-01  3.3668584469711776e-01  3.4667636339820251e-01  3.5846201807474670e-01  3.7200274799694472e-01  3.8723620950602461e-01  4.0406863133810483e-01  4.2235381499637736e-01  4.4186112814263406e-01  4.6225081652276234e-01  4.8310321580383198e-01  5.0407335570861644e-01  5.2521865364128417e-01  5.4740204275116433e-01  5.7238526717216487e-01  6.0195421042922237e-01  6.3701891827564217e-01  6.7954190997509945e-01  7.4147097948215113e-01  8.3717795045062982e-01  9.1970909053308370e-01  8.3632082352425341e-01  9.5631050087678748e-01  9.6576901023088091e-01  9.3875848917956528e-01  8.8103360613113035e-01  7.9894160424247396e-01  7.2933676040188000e-01  6.8724709075863788e-01  6.5613216006664232e-01  6.2930437814875329e-01  6.0476524723138780e-01  5.8124381160698702e-01  5.5817809600681789e-01  5.3558170907421465e-01  5.1370955058769652e-01  4.9283359851964254e-01  4.7316880414481211e-01  4.5487870336626524e-01  4.3810052081238560e-01  4.2296265218571621e-01  4.0958934356270760e-01  3.9809653134141798e-01  3.8858471461251398e-01  3.8113337645121181e-01  3.7579905472707748e-01  3.7261691837833127e-01  3.7160425281899895e-01  3.7276379625299638e-01  3.7608531516552723e-01  3.8154487719637653e-01  3.8910253724979293e-01  3.9870011022753366e-01  4.1026094462403140e-01  4.2369285556844805e-01  4.3889349809063544e-01  4.5575461775999748e-01  4.7415864839799876e-01  4.9396025239374391e-01  5.1495102769777823e-01  5.3682436844605586e-01  5.5919305586965118e-01  5.8174720942056035e-01  6.0460402932631796e-01  6.2870002528780189e-01  6.5576275726757327e-01  6.8805886292850760e-01  7.3216543207534557e-01  8.0256500417328769e-01  8.8834405016027151e-01  9.4440508027404868e-01  9.6710457424117324e-01  9.4641497959766541e-01  9.6726149195207933e-01  9.7705759775687484e-01  9.5920735082361008e-01  9.2272557481072204e-01  8.6403982294225834e-01  7.9258820382260886e-01  7.3861321796504098e-01  7.0498980116182564e-01  6.7913815531724642e-01  6.5604487024951985e-01  6.3389354441716039e-01  6.1197719803513351e-01  5.9028089050546839e-01  5.6908526317863095e-01  5.4868795603015952e-01  5.2930873981033766e-01  5.1110490108931417e-01  4.9421360413224646e-01  4.7878053207529392e-01  4.6496725892240481e-01  4.5294361635470082e-01  4.4287379677161337e-01  4.3490285784668387e-01  4.2914711346344858e-01  4.2568912276234100e-01  4.2457620609544816e-01  4.2582074184624863e-01  4.2940078964976525e-01  4.3526052623234102e-01  4.4331112515649429e-01  4.5343356424754655e-01  4.6548495630541248e-01  4.7930905288930631e-01  4.9474943966439350e-01  5.1166080450811657e-01  5.2991033033686441e-01  5.4935991576432275e-01  5.6982536136414530e-01  5.9102906084257656e-01  6.1260352064633028e-01  6.3424053662552504e-01  6.5603270942266190e-01  6.7887375050165266e-01  7.0478671028807116e-01  7.3893256442873312e-01  7.9373520925479979e-01  8.6587065009447128e-01  9.2473172131168746e-01  9.6061248532776011e-01  9.7748395252682652e-01  9.6443193957765250e-01  9.6455659433862317e-01  9.7769929241343867e-01  9.6140735122592424e-01  9.2783275211742178e-01  8.7558263136600134e-01  8.1108682420196909e-01  7.5798789645559028e-01  7.2485483606411072e-01  7.0124067078928121e-01  6.8093926135358651e-01  6.6160327826848575e-01  6.4235788859777543e-01  6.2311652645327031e-01  6.0413288382270447e-01  5.8569406958209513e-01  5.6800705722579092e-01  5.5121435909460326e-01  5.3544547657159225e-01  5.2085323751006773e-01  5.0762372134936795e-01  4.9596634623019309e-01  4.8609456520701932e-01  4.7820563193154958e-01  4.7246430908133835e-01  4.6899211257784096e-01  4.6786149590451148e-01  4.6909345501079946e-01  4.7265719262954453e-01  4.7847134420772414e-01  4.8640736174340704e-01  4.9629646340698885e-01  5.0794159203195510e-01  5.2113469808787305e-01  5.3567722352683378e-01  5.5139817206390518e-01  5.6816053695020796e-01  5.8584530086997955e-01  6.0430752739465177e-01  6.2331998960849644e-01  6.4256261561761219e-01  6.6175414871902838e-01  6.8097466015184849e-01  7.0109553349431442e-01  7.2441373177882196e-01  7.5710739432756535e-01  8.1000667182850572e-01  8.7446145958477162e-01  9.2641062679660546e-01  9.6011278529221056e-01  9.7722774096324305e-01  9.6727539068432189e-01  9.4670211618899325e-01  9.6790606555829195e-01  9.4821192862608494e-01  9.0512800891797629e-01  8.4317866545867703e-01  7.8284492420887786e-01  7.4180622196316637e-01  7.1671303843904410e-01  6.9840213146527153e-01  6.8246908726664324e-01  6.6701636958971089e-01  6.5135036374605859e-01  6.3546420476103727e-01  6.1962158239000009e-01  6.0408605646842917e-01  5.8903148987186704e-01  5.7457050988290581e-01  5.6081315752982475e-01  5.4790694613701807e-01  5.3604734979351032e-01  5.2546567229356445e-01  5.1640558216525734e-01  5.0909786576927019e-01  5.0373923684478195e-01  5.0047741752123875e-01  4.9940219358557081e-01  5.0054103193997224e-01  5.0385792759788894e-01  5.0925498600928820e-01  5.1657734292148538e-01  5.2562285834902944e-01  5.3615805984648102e-01  5.4794058589834749e-01  5.6074570001239510e-01  5.7439065193068883e-01  5.8874681284926234e-01  6.0372763005269969e-01  6.1924454397939266e-01  6.3514083311248104e-01  6.5115211894450920e-01  6.6698281745986021e-01  6.8256182867591053e-01  6.9842998304795345e-01  7.1622942307225146e-01  7.4013408971871752e-01  7.7995775246565846e-01  8.4007386073444945e-01  8.9971585223525319e-01  9.4362368069918712e-01  9.6664918027712510e-01  9.5653183264482222e-01  8.3541991745760003e-01  9.2508923460975656e-01  8.7194208873215251e-01  8.0107559971612774e-01  7.4657926762754134e-01  7.1427792395031631e-01  6.9468858857099924e-01  6.8154068681438207e-01  6.7129214244834690e-01  6.6176966771405177e-01  6.5167077042826860e-01  6.4067082689438082e-01  6.2901771763174186e-01  6.1709129155665099e-01  6.0517784374288663e-01  5.9343768181516987e-01  5.8196481715058879e-01  5.7085637293024649e-01  5.6025467311511323e-01  5.5035702685610843e-01  5.4140204108978063e-01  5.3364424231712404e-01  5.2732684056067114e-01  5.2265870840363859e-01  5.1979792293377414e-01  5.1884161601687395e-01  5.1982073121409733e-01  5.2269836384807289e-01  5.2737119606896055e-01  5.3367463970604323e-01  5.4139318090452204e-01  5.5027755318257643e-01  5.6006922400395054e-01  5.7052999242393032e-01  5.8147059116041944e-01  5.9276813321092281e-01  6.0435969648308996e-01  6.1620094231699463e-01  6.2819004103649401e-01  6.4008716148955047e-01  6.5150677889668851e-01  6.6208443503618564e-01  6.7185715250293299e-01  6.8170305015948918e-01  6.9350524945895664e-01  7.1112257135121848e-01  7.4396635757339069e-01  7.9407894102449639e-01  8.6576214820683628e-01  9.2218573484454569e-01  8.8944544316707252e-01  3.5640642402632733e-01  5.5034765492273907e-01  5.8657963406826297e-01  6.1260351259365931e-01  6.1598977414790546e-01  6.1700867157918526e-01  6.1700174068332825e-01  6.1762999319982037e-01  6.1833136296360258e-01  6.1774689889383660e-01  6.1505556987588450e-01  6.1038003019939491e-01  6.042974422