<?xml version="1.0"?>
<VTKFile type="UnstructuredGrid"  version="0.1"  >
<UnstructuredGrid>
<Piece  NumberOfPoints="2601" NumberOfCells="5000">
<Points>
<DataArray  type="Float64"  NumberOfComponents="3"  format="ascii">0 0 0  0.03 0 0  0.06 0 0  0.09 0 0  0.12 0 0  0.15 0 0  0.18 0 0  0.21 0 0  0.24 0 0  0.27 0 0  0.3 0 0  0.33 0 0  0.36 0 0  0.39 0 0  0.42 0 0  0.45 0 0  0.48 0 0  0.51 0 0  0.54 0 0  0.57 0 0  0.6 0 0  0.63 0 0  0.66 0 0  0.6899999999999999 0 0  0.72 0 0  0.75 0 0  0.78 0 0  0.8100000000000001 0 0  0.84 0 0  0.87 0 0  0.9 0 0  0.93 0 0  0.96 0 0  0.99 0 0  1.02 0 0  1.05 0 0  1.08 0 0  1.11 0 0  1.14 0 0  1.17 0 0  1.2 0 0  1.23 0 0  1.26 0 0  1.29 0 0  1.32 0 0  1.35 0 0  1.38 0 0  1.41 0 0  1.44 0 0  1.47 0 0  1.5 0 0  0 0.02 0  0.03 0.02 0  0.06 0.02 0  0.09 0.02 0  0.12 0.02 0  0.15 0.02 0  0.18 0.02 0  0.21 0.02 0  0.24 0.02 0  0.27 0.02 0  0.3 0.02 0  0.33 0.02 0  0.36 0.02 0  0.39 0.02 0  0.42 0.02 0  0.45 0.02 0  0.48 0.02 0  0.51 0.02 0  0.54 0.02 0  0.57 0.02 0  0.6 0.02 0  0.63 0.02 0  0.66 0.02 0  0.6899999999999999 0.02 0  0.72 0.02 0  0.75 0.02 0  0.78 0.02 0  0.8100000000000001 0.02 0  0.84 0.02 0  0.87 0.02 0  0.9 0.02 0  0.93 0.02 0  0.96 0.02 0  0.99 0.02 0  1.02 0.02 0  1.05 0.02 0  1.08 0.02 0  1.11 0.02 0  1.14 0.02 0  1.17 0.02 0  1.2 0.02 0  1.23 0.02 0  1.26 0.02 0  1.29 0.02 0  1.32 0.02 0  1.35 0.02 0  1.38 0.02 0  1.41 0.02 0  1.44 0.02 0  1.47 0.02 0  1.5 0.02 0  0 0.04 0  0.03 0.04 0  0.06 0.04 0  0.09 0.04 0  0.12 0.04 0  0.15 0.04 0  0.18 0.04 0  0.21 0.04 0  0.24 0.04 0  0.27 0.04 0  0.3 0.04 0  0.33 0.04 0  0.36 0.04 0  0.39 0.04 0  0.42 0.04 0  0.45 0.04 0  0.48 0.04 0  0.51 0.04 0  0.54 0.04 0  0.57 0.04 0  0.6 0.04 0  0.63 0.04 0  0.66 0.04 0  0.6899999999999999 0.04 0  0.72 0.04 0  0.75 0.04 0  0.78 0.04 0  0.8100000000000001 0.04 0  0.84 0.04 0  0.87 0.04 0  0.9 0.04 0  0.93 0.04 0  0.96 0.04 0  0.99 0.04 0  1.02 0.04 0  1.05 0.04 0  1.08 0.04 0  1.11 0.04 0  1.14 0.04 0  1.17 0.04 0  1.2 0.04 0  1.23 0.04 0  1.26 0.04 0  1.29 0.04 0  1.32 0.04 0  1.35 0.04 0  1.38 0.04 0  1.41 0.04 0  1.44 0.04 0  1.47 0.04 0  1.5 0.04 0  0 0.06 0  0.03 0.06 0  0.06 0.06 0  0.09 0.06 0  0.12 0.06 0  0.15 0.06 0  0.18 0.06 0  0.21 0.06 0  0.24 0.06 0  0.27 0.06 0  0.3 0.06 0  0.33 0.06 0  0.36 0.06 0  0.39 0.06 0  0.42 0.06 0  0.45 0.06 0  0.48 0.06 0  0.51 0.06 0  0.54 0.06 0  0.57 0.06 0  0.6 0.06 0  0.63 0.06 0  0.66 0.06 0  0.6899999999999999 0.06 0  0.72 0.06 0  0.75 0.06 0  0.78 0.06 0  0.8100000000000001 0.06 0  0.84 0.06 0  0.87 0.06 0  0.9 0.06 0  0.93 0.06 0  0.96 0.06 0  0.99 0.06 0  1.02 0.06 0  1.05 0.06 0  1.08 0.06 0  1.11 0.06 0  1.14 0.06 0  1.17 0.06 0  1.2 0.06 0  1.23 0.06 0  1.26 0.06 0  1.29 0.06 0  1.32 0.06 0  1.35 0.06 0  1.38 0.06 0  1.41 0.06 0  1.44 0.06 0  1.47 0.06 0  1.5 0.06 0  0 0.08 0  0.03 0.08 0  0.06 0.08 0  0.09 0.08 0  0.12 0.08 0  0.15 0.08 0  0.18 0.08 0  0.21 0.08 0  0.24 0.08 0  0.27 0.08 0  0.3 0.08 0  0.33 0.08 0  0.36 0.08 0  0.39 0.08 0  0.42 0.08 0  0.45 0.08 0  0.48 0.08 0  0.51 0.08 0  0.54 0.08 0  0.57 0.08 0  0.6 0.08 0  0.63 0.08 0  0.66 0.08 0  0.6899999999999999 0.08 0  0.72 0.08 0  0.75 0.08 0  0.78 0.08 0  0.8100000000000001 0.08 0  0.84 0.08 0  0.87 0.08 0  0.9 0.08 0  0.93 0.08 0  0.96 0.08 0  0.99 0.08 0  1.02 0.08 0  1.05 0.08 0  1.08 0.08 0  1.11 0.08 0  1.14 0.08 0  1.17 0.08 0  1.2 0.08 0  1.23 0.08 0  1.26 0.08 0  1.29 0.08 0  1.32 0.08 0  1.35 0.08 0  1.38 0.08 0  1.41 0.08 0  1.44 0.08 0  1.47 0.08 0  1.5 0.08 0  0 0.1 0  0.03 0.1 0  0.06 0.1 0  0.09 0.1 0  0.12 0.1 0  0.15 0.1 0  0.18 0.1 0  0.21 0.1 0  0.24 0.1 0  0.27 0.1 0  0.3 0.1 0  0.33 0.1 0  0.36 0.1 0  0.39 0.1 0  0.42 0.1 0  0.45 0.1 0  0.48 0.1 0  0.51 0.1 0  0.54 0.1 0  0.57 0.1 0  0.6 0.1 0  0.63 0.1 0  0.66 0.1 0  0.6899999999999999 0.1 0  0.72 0.1 0  0.75 0.1 0  0.78 0.1 0  0.8100000000000001 0.1 0  0.84 0.1 0  0.87 0.1 0  0.9 0.1 0  0.93 0.1 0  0.96 0.1 0  0.99 0.1 0  1.02 0.1 0  1.05 0.1 0  1.08 0.1 0  1.11 0.1 0  1.14 0.1 0  1.17 0.1 0  1.2 0.1 0  1.23 0.1 0  1.26 0.1 0  1.29 0.1 0  1.32 0.1 0  1.35 0.1 0  1.38 0.1 0  1.41 0.1 0  1.44 0.1 0  1.47 0.1 0  1.5 0.1 0  0 0.12 0  0.03 0.12 0  0.06 0.12 0  0.09 0.12 0  0.12 0.12 0  0.15 0.12 0  0.18 0.12 0  0.21 0.12 0  0.24 0.12 0  0.27 0.12 0  0.3 0.12 0  0.33 0.12 0  0.36 0.12 0  0.39 0.12 0  0.42 0.12 0  0.45 0.12 0  0.48 0.12 0  0.51 0.12 0  0.54 0.12 0  0.57 0.12 0  0.6 0.12 0  0.63 0.12 0  0.66 0.12 0  0.6899999999999999 0.12 0  0.72 0.12 0  0.75 0.12 0  0.78 0.12 0  0.8100000000000001 0.12 0  0.84 0.12 0  0.87 0.12 0  0.9 0.12 0  0.93 0.12 0  0.96 0.12 0  0.99 0.12 0  1.02 0.12 0  1.05 0.12 0  1.08 0.12 0  1.11 0.12 0  1.14 0.12 0  1.17 0.12 0  1.2 0.12 0  1.23 0.12 0  1.26 0.12 0  1.29 0.12 0  1.32 0.12 0  1.35 0.12 0  1.38 0.12 0  1.41 0.12 0  1.44 0.12 0  1.47 0.12 0  1.5 0.12 0  0 0.14 0  0.03 0.14 0  0.06 0.14 0  0.09 0.14 0  0.12 0.14 0  0.15 0.14 0  0.18 0.14 0  0.21 0.14 0  0.24 0.14 0  0.27 0.14 0  0.3 0.14 0  0.33 0.14 0  0.36 0.14 0  0.39 0.14 0  0.42 0.14 0  0.45 0.14 0  0.48 0.14 0  0.51 0.14 0  0.54 0.14 0  0.57 0.14 0  0.6 0.14 0  0.63 0.14 0  0.66 0.14 0  0.6899999999999999 0.14 0  0.72 0.14 0  0.75 0.14 0  0.78 0.14 0  0.8100000000000001 0.14 0  0.84 0.14 0  0.87 0.14 0  0.9 0.14 0  0.93 0.14 0  0.96 0.14 0  0.99 0.14 0  1.02 0.14 0  1.05 0.14 0  1.08 0.14 0  1.11 0.14 0  1.14 0.14 0  1.17 0.14 0  1.2 0.14 0  1.23 0.14 0  1.26 0.14 0  1.29 0.14 0  1.32 0.14 0  1.35 0.14 0  1.38 0.14 0  1.41 0.14 0  1.44 0.14 0  1.47 0.14 0  1.5 0.14 0  0 0.16 0  0.03 0.16 0  0.06 0.16 0  0.09 0.16 0  0.12 0.16 0  0.15 0.16 0  0.18 0.16 0  0.21 0.16 0  0.24 0.16 0  0.27 0.16 0  0.3 0.16 0  0.33 0.16 0  0.36 0.16 0  0.39 0.16 0  0.42 0.16 0  0.45 0.16 0  0.48 0.16 0  0.51 0.16 0  0.54 0.16 0  0.57 0.16 0  0.6 0.16 0  0.63 0.16 0  0.66 0.16 0  0.6899999999999999 0.16 0  0.72 0.16 0  0.75 0.16 0  0.78 0.16 0  0.8100000000000001 0.16 0  0.84 0.16 0  0.87 0.16 0  0.9 0.16 0  0.93 0.16 0  0.96 0.16 0  0.99 0.16 0  1.02 0.16 0  1.05 0.16 0  1.08 0.16 0  1.11 0.16 0  1.14 0.16 0  1.17 0.16 0  1.2 0.16 0  1.23 0.16 0  1.26 0.16 0  1.29 0.16 0  1.32 0.16 0  1.35 0.16 0  1.38 0.16 0  1.41 0.16 0  1.44 0.16 0  1.47 0.16 0  1.5 0.16 0  0 0.18 0  0.03 0.18 0  0.06 0.18 0  0.09 0.18 0  0.12 0.18 0  0.15 0.18 0  0.18 0.18 0  0.21 0.18 0  0.24 0.18 0  0.27 0.18 0  0.3 0.18 0  0.33 0.18 0  0.36 0.18 0  0.39 0.18 0  0.42 0.18 0  0.45 0.18 0  0.48 0.18 0  0.51 0.18 0  0.54 0.18 0  0.57 0.18 0  0.6 0.18 0  0.63 0.18 0  0.66 0.18 0  0.6899999999999999 0.18 0  0.72 0.18 0  0.75 0.18 0  0.78 0.18 0  0.8100000000000001 0.18 0  0.84 0.18 0  0.87 0.18 0  0.9 0.18 0  0.93 0.18 0  0.96 0.18 0  0.99 0.18 0  1.02 0.18 0  1.05 0.18 0  1.08 0.18 0  1.11 0.18 0  1.14 0.18 0  1.17 0.18 0  1.2 0.18 0  1.23 0.18 0  1.26 0.18 0  1.29 0.18 0  1.32 0.18 0  1.35 0.18 0  1.38 0.18 0  1.41 0.18 0  1.44 0.18 0  1.47 0.18 0  1.5 0.18 0  0 0.2 0  0.03 0.2 0  0.06 0.2 0  0.09 0.2 0  0.12 0.2 0  0.15 0.2 0  0.18 0.2 0  0.21 0.2 0  0.24 0.2 0  0.27 0.2 0  0.3 0.2 0  0.33 0.2 0  0.36 0.2 0  0.39 0.2 0  0.42 0.2 0  0.45 0.2 0  0.48 0.2 0  0.51 0.2 0  0.54 0.2 0  0.57 0.2 0  0.6 0.2 0  0.63 0.2 0  0.66 0.2 0  0.6899999999999999 0.2 0  0.72 0.2 0  0.75 0.2 0  0.78 0.2 0  0.8100000000000001 0.2 0  0.84 0.2 0  0.87 0.2 0  0.9 0.2 0  0.93 0.2 0  0.96 0.2 0  0.99 0.2 0  1.02 0.2 0  1.05 0.2 0  1.08 0.2 0  1.11 0.2 0  1.14 0.2 0  1.17 0.2 0  1.2 0.2 0  1.23 0.2 0  1.26 0.2 0  1.29 0.2 0  1.32 0.2 0  1.35 0.2 0  1.38 0.2 0  1.41 0.2 0  1.44 0.2 0  1.47 0.2 0  1.5 0.2 0  0 0.22 0  0.03 0.22 0  0.06 0.22 0  0.09 0.22 0  0.12 0.22 0  0.15 0.22 0  0.18 0.22 0  0.21 0.22 0  0.24 0.22 0  0.27 0.22 0  0.3 0.22 0  0.33 0.22 0  0.36 0.22 0  0.39 0.22 0  0.42 0.22 0  0.45 0.22 0  0.48 0.22 0  0.51 0.22 0  0.54 0.22 0  0.57 0.22 0  0.6 0.22 0  0.63 0.22 0  0.66 0.22 0  0.6899999999999999 0.22 0  0.72 0.22 0  0.75 0.22 0  0.78 0.22 0  0.8100000000000001 0.22 0  0.84 0.22 0  0.87 0.22 0  0.9 0.22 0  0.93 0.22 0  0.96 0.22 0  0.99 0.22 0  1.02 0.22 0  1.05 0.22 0  1.08 0.22 0  1.11 0.22 0  1.14 0.22 0  1.17 0.22 0  1.2 0.22 0  1.23 0.22 0  1.26 0.22 0  1.29 0.22 0  1.32 0.22 0  1.35 0.22 0  1.38 0.22 0  1.41 0.22 0  1.44 0.22 0  1.47 0.22 0  1.5 0.22 0  0 0.24 0  0.03 0.24 0  0.06 0.24 0  0.09 0.24 0  0.12 0.24 0  0.15 0.24 0  0.18 0.24 0  0.21 0.24 0  0.24 0.24 0  0.27 0.24 0  0.3 0.24 0  0.33 0.24 0  0.36 0.24 0  0.39 0.24 0  0.42 0.24 0  0.45 0.24 0  0.48 0.24 0  0.51 0.24 0  0.54 0.24 0  0.57 0.24 0  0.6 0.24 0  0.63 0.24 0  0.66 0.24 0  0.6899999999999999 0.24 0  0.72 0.24 0  0.75 0.24 0  0.78 0.24 0  0.8100000000000001 0.24 0  0.84 0.24 0  0.87 0.24 0  0.9 0.24 0  0.93 0.24 0  0.96 0.24 0  0.99 0.24 0  1.02 0.24 0  1.05 0.24 0  1.08 0.24 0  1.11 0.24 0  1.14 0.24 0  1.17 0.24 0  1.2 0.24 0  1.23 0.24 0  1.26 0.24 0  1.29 0.24 0  1.32 0.24 0  1.35 0.24 0  1.38 0.24 0  1.41 0.24 0  1.44 0.24 0  1.47 0.24 0  1.5 0.24 0  0 0.26 0  0.03 0.26 0  0.06 0.26 0  0.09 0.26 0  0.12 0.26 0  0.15 0.26 0  0.18 0.26 0  0.21 0.26 0  0.24 0.26 0  0.27 0.26 0  0.3 0.26 0  0.33 0.26 0  0.36 0.26 0  0.39 0.26 0  0.42 0.26 0  0.45 0.26 0  0.48 0.26 0  0.51 0.26 0  0.54 0.26 0  0.57 0.26 0  0.6 0.26 0  0.63 0.26 0  0.66 0.26 0  0.6899999999999999 0.26 0  0.72 0.26 0  0.75 0.26 0  0.78 0.26 0  0.8100000000000001 0.26 0  0.84 0.26 0  0.87 0.26 0  0.9 0.26 0  0.93 0.26 0  0.96 0.26 0  0.99 0.26 0  1.02 0.26 0  1.05 0.26 0  1.08 0.26 0  1.11 0.26 0  1.14 0.26 0  1.17 0.26 0  1.2 0.26 0  1.23 0.26 0  1.26 0.26 0  1.29 0.26 0  1.32 0.26 0  1.35 0.26 0  1.38 0.26 0  1.41 0.26 0  1.44 0.26 0  1.47 0.26 0  1.5 0.26 0  0 0.28 0  0.03 0.28 0  0.06 0.28 0  0.09 0.28 0  0.12 0.28 0  0.15 0.28 0  0.18 0.28 0  0.21 0.28 0  0.24 0.28 0  0.27 0.28 0  0.3 0.28 0  0.33 0.28 0  0.36 0.28 0  0.39 0.28 0  0.42 0.28 0  0.45 0.28 0  0.48 0.28 0  0.51 0.28 0  0.54 0.28 0  0.57 0.28 0  0.6 0.28 0  0.63 0.28 0  0.66 0.28 0  0.6899999999999999 0.28 0  0.72 0.28 0  0.75 0.28 0  0.78 0.28 0  0.8100000000000001 0.28 0  0.84 0.28 0  0.87 0.28 0  0.9 0.28 0  0.93 0.28 0  0.96 0.28 0  0.99 0.28 0  1.02 0.28
[...]
<PointData  Scalars="ControlVisualisation"> 
<DataArray  type="Float64"  Name="ControlVisualisation"  format="ascii">1.9136888978013647e-05  1.2768419566109415e-05  1.2816079209370790e-05  1.2914047953538103e-05  1.3064965695585613e-05  1.3252758694951424e-05  1.3451473135421172e-05  1.3636468902473300e-05  1.3791063105819353e-05  1.3907810684065631e-05  1.3986225039774611e-05  1.4029917798438014e-05  1.4044626643322573e-05  1.4036945100100686e-05  1.4013391885689002e-05  1.3979787653485259e-05  1.3940959171683125e-05  1.3900686592911685e-05  1.3861778627377194e-05  1.3826204485281162e-05  1.3795253846565292e-05  1.3769708280500563e-05  1.3750004014755112e-05  1.3736365919765592e-05  1.3728901623870378e-05  1.3727657005104503e-05  1.3732641983704776e-05  1.3743834967841736e-05  1.3761167333846529e-05  1.3784481243732433e-05  1.3813450812630117e-05  1.3847461561122228e-05  1.3885454566688813e-05  1.3925752179416368e-05  1.3965886145589944e-05  1.4002448950154284e-05  1.4031002762490784e-05  1.4046107261955686e-05  1.4041543135040332e-05  1.4010780802652089e-05  1.3947618459915573e-05  1.3847184940203878e-05  1.3707843785159881e-05  1.3533998820929508e-05  1.3338724527292386e-05  1.3143413797899875e-05  1.2973777669191041e-05  1.2851942420344174e-05  1.2784392186129096e-05  1.2757866440634402e-05  3.8271856601714738e-05  1.2761028602993592e-05  6.3871750276822729e-06  6.4333040888771080e-06  6.5358812766561759e-06  6.7047243406297802e-06  6.9292482713390622e-06  7.1833003304040165e-06  7.4355135621259107e-06  7.6589711282730344e-06  7.8368066548157493e-06  7.9624257552997604e-06  8.0369688849832863e-06  8.0666861879594352e-06  8.0606876207618597e-06  8.0289329983111778e-06  7.9807119759970641e-06  7.9238231325257397e-06  7.8643349501762643e-06  7.8066755780159567e-06  7.7538664998321609e-06  7.7078119737894400e-06  7.6696007848477119e-06  7.6397849734693390e-06  7.6186052666126840e-06  7.6061480991719240e-06  7.6024382813608366e-06  7.6074835541375580e-06  7.6212870153548655e-06  7.6438327701724157e-06  7.6750361513534683e-06  7.7146409929061256e-06  7.7620491395837218e-06  7.8160816531532679e-06  7.8746898317670208e-06  7.9346459990256218e-06  7.9912485416439124e-06  8.0381072650616299e-06  8.0671332488830976e-06  8.0689506063388707e-06  8.0338252445760533e-06  7.9530185059360362e-06  7.8205110480146954e-06  7.6357192032551686e-06  7.4066338237656660e-06  7.1522185335219291e-06  6.9003857121784790e-06  6.6812444497158041e-06  6.5196849783511451e-06  6.4250670264926938e-06  6.3844795613961204e-06  1.2756349720211360e-05  1.2775360475513304e-05  6.4017156467749761e-06  6.4615277881707096e-06  6.5921109215196666e-06  6.8026608608772805e-06  7.0785117968449282e-06  7.3891268665806131e-06  7.6971459865352580e-06  7.9698155937954093e-06  8.1866411041781705e-06  8.3391552550424403e-06  8.4279011921578712e-06  8.4600946632242201e-06  8.4472013298217298e-06  8.4021102527639957e-06  8.3368542139035499e-06  8.2614453110536900e-06  8.1835888234489017e-06  8.1088301210404336e-06  8.0408702612813792e-06  7.9819530508394839e-06  7.9332766984388316e-06  7.8953777512364917e-06  7.8684371194763506e-06  7.8524841124920886e-06  7.8475079415669773e-06  7.8535062653322762e-06  7.8704988750482433e-06  7.8985161664366119e-06  7.9375479520397878e-06  7.9874220635779874e-06  8.0475852651793000e-06  8.1167824147131694e-06  8.1926652943340283e-06  8.2713734459142741e-06  8.3471258631179354e-06  8.4119009396382580e-06  8.4553619466771717e-06  8.4654360235057610e-06  8.4295754687829846e-06  8.3369907292058880e-06  8.1802682185460499e-06  7.9585003180649240e-06  7.6806611342271097e-06  7.3697090381915547e-06  7.0604686834003548e-06  6.7873612461441631e-06  6.5794147437313196e-06  6.4533539063935427e-06  6.3983895853635595e-06  1.2766684511160240e-05  1.2789340260175056e-05  6.4226442159846920e-06  6.5062442185015711e-06  6.6698120096223057e-06  6.9097232027633437e-06  7.2049352660033552e-06  7.5257367456088570e-06  7.8332168997179716e-06  8.0962566363065494e-06  8.2996641022112906e-06  8.4382533024595767e-06  8.5131353498822501e-06  8.5316768316863647e-06  8.5059619495489598e-06  8.4494961931279301e-06  8.3745549467301552e-06  8.2911183746562473e-06  8.2067789725716467e-06  8.1269558819649135e-06  8.0551906095482138e-06  7.9935182497004067e-06  7.9429039801570325e-06  7.9036741560138084e-06  7.8758577464057492e-06  7.8593967352315748e-06  7.8542414751077874e-06  7.8603794004772277e-06  7.8778418534751087e-06  7.9067042499232385e-06  7.9470567176695983e-06  7.9988960705254756e-06  8.0618944126735779e-06  8.1350389178218469e-06  8.2162004569339116e-06  8.3016951578452675e-06  8.3858923252225541e-06  8.4608480632768204e-06  8.5160898227979197e-06  8.5391217118028854e-06  8.5169549131507119e-06  8.4395935807905380e-06  8.2986847028791190e-06  8.0907104081321422e-06  7.8208532694855766e-06  7.5075003275189573e-06  7.1878240351373719e-06  6.8944727150453112e-06  6.6530948976633660e-06  6.4911469226294896e-06  6.4150164947670014e-06  1.2781230547999601e-05  1.2786811227086675e-05  6.4485640950632033e-06  6.5962103420055939e-06  6.8311518186848289e-06  7.1090461255269870e-06  7.4164563121213451e-06  7.7394304663643073e-06  8.0302919289077063e-06  8.2646320846054079e-06  8.4392803832401731e-06  8.5524261247542489e-06  8.6038817696118273e-06  8.6005030016904795e-06  8.5553515237702163e-06  8.4827009243280301e-06  8.3947669126308667e-06  8.3010938768809653e-06  8.2088745981259536e-06  8.1232232479646381e-06  8.0473744873477813e-06  7.9829958264146467e-06  7.9306587507110306e-06  7.8903499447846206e-06  7.8618688486665274e-06  7.8450394817380815e-06  7.8397682182405679e-06  7.8460319153437867e-06  7.8638705574854939e-06  7.8934096838471127e-06  7.9348753605919401e-06  7.9885183962090673e-06  8.0543697058013677e-06  8.1318145460752164e-06  8.2190851735510416e-06  8.3128347001113987e-06  8.4078185346881896e-06  8.4963865226743912e-06  8.5681950756225951e-06  8.6103199297921894e-06  8.6098605705716924e-06  8.5571402648235542e-06  8.4444053961086698e-06  8.2661042085830318e-06  8.0264768060665455e-06  7.7230480157965852e-06  7.4021189241261718e-06  7.1023297640985020e-06  6.8157278283545896e-06  6.5721261522359835e-06  6.4290655023729719e-06  1.2786657804890862e-05  1.2790194238263773e-05  6.5186566767475090e-06  6.9626486216239102e-06  7.5790786664437185e-06  7.8725393488779103e-06  7.9988049237110771e-06  8.1629681742766075e-06  8.3419531455334085e-06  8.5019075859648296e-06  8.6276879216236036e-06  8.7053222353307924e-06  8.7244487231354767e-06  8.6902497761943682e-06  8.6181488964849001e-06  8.5237177562427137e-06  8.4186540133053938e-06  8.3115812690614199e-06  8.2090861728938350e-06  8.1159182844548113e-06  8.0349313228274291e-06  7.9672726878562076e-06  7.9129285335049368e-06  7.8713885331747001e-06  7.8421404865651984e-06  7.8248741256005772e-06  7.8194637569217121e-06  7.8258814825045617e-06  7.8441635702800875e-06  7.8744727361505143e-06  7.9171960495986970e-06  7.9729349287623136e-06  8.0422465529573634e-06  8.1251032862020629e-06  8.2202215502650664e-06  8.3247169453943761e-06  8.4337932813060382e-06  8.5404041852670151e-06  8.6351308215214839e-06  8.7036429237722238e-06  8.7323994873507182e-06  8.7079043257832366e-06  8.6521761736513622e-06  8.5400866165193544e-06  8.4151468553734767e-06  8.2600461473995212e-06  8.1446389463431190e-06  7.9806357009307789e-06  7.3995767623776865e-06  6.7791177109771864e-06  6.4510695395663759e-06  1.2775715049818637e-05  1.3254776217747009e-05  7.0517867929388508e-06  9.6585547252024774e-06  1.6983905069521095e-05  2.2075443602908209e-05  1.5538518307198412e-05  1.1138968239443297e-05  9.3615694891086456e-06  8.9058731839652647e-06  8.8841782327564871e-06  8.9048890096317082e-06  8.8800421957914620e-06  8.8032715528746795e-06  8.6951853698966623e-06  8.5731292511951933e-06  8.4468249361796015e-06  8.3231377454081377e-06  8.2078739369450534e-06  8.1054707649592495e-06  8.0183798646728846e-06  7.9470325788262337e-06  7.8905544228982424e-06  7.8477251369091501e-06  7.8176360260915011e-06  7.7998582541458015e-06  7.7942796112311416e-06  7.8008853391962978e-06  7.8196779648884096e-06  7.8508072248796075e-06  7.8948184365077147e-06  7.9527746665794710e-06  8.0259911984299899e-06  8.1153081198456247e-06  8.2200366145763467e-06  8.3377685742250572e-06  8.4641697391011254e-06  8.5941507736445674e-06  8.7189353228076676e-06  8.8209189456293507e-06  8.8902431418778367e-06  8.9104859011341862e-06  8.9962596301982761e-06  9.1429458787744210e-06  9.8258607204897121e-06  1.1326566052557815e-05  1.4792391745566181e-05  2.1787964094095796e-05  1.7904124287646144e-05  1.0251866257102751e-05  6.9283922080179674e-06  1.2829409149445739e-05  1.4413620741117054e-05  1.5758287248213321e-05  2.9599235205385675e-02  5.7115488283322420e-02  5.3092961833970907e-02  3.3358522747275646e-02  1.0469982606270066e-02  3.1031944277831256e-05  1.1749142958978897e-05  9.5136753057002571e-06  9.1945291019333992e-06  9.0820693843029910e-06  8.9407926794890652e-06  8.7852429853371731e-06  8.6299948631378936e-06  8.4786362649196583e-06  8.3350888964238904e-06  8.2044210799843858e-06  8.0910343973530190e-06  7.9970627982144738e-06  7.9219304806877653e-06  7.8634700160859161e-06  7.8194475787617533e-06  7.7884803929640193e-06  7.7701011823463524e-06  7.7643159549870750e-06  7.7711617097298444e-06  7.7905483388445876e-06  7.8224928747661255e-06  7.8676414899648966e-06  7.9276467762377481e-06  8.0049048775119112e-06  8.1015820170599479e-06  8.2177108464634361e-06  8.3511300341323471e-06  8.4984768687099106e-06  8.6570113536823683e-06  8.8169365469781380e-06  8.9747393465346472e-06  9.1169439084890196e-06  9.2634166334062664e-06  1.0105536644774978e-05  1.2254230474411028e-05  2.4219006058278523e-05  7.6774497164251955e-03  2.9055278026630826e-02  5.0065162405426251e-02  5.7558238032654786e-02  4.1259567103218125e-02  1.6268070977522881e-05  1.4355515385183458e-05  3.1671912191495166e-05  8.9854575193086220e-02  2.0994026235166874e-01  2.1428713735441737e-01  1.8042549774438130e-01  1.3263380924728693e-01  8.2243797097961882e-02  3.7848603476060214e-02  5.8382935237422159e-03  1.6405413592553465e-05  1.0311531057085156e-05  9.4072726170389506e-06  9.1090895270811224e-06  8.8860020308652485e-06  8.6934881313024527e-06  8.5135836575059417e-06  8.3467676879091218e-06  8.1976979811700144e-06  8.0714168388584177e-06  7.9700580783260517e-06  7.8915256973461274e-06  7.8316372276874851e-06  7.7867002543171662e-06  7.7548147324399781e-06  7.7356809829912489e-06  7.7296240709858828e-06  7.7368048160825288e-06  7.7569411577781017e-06  7.7896706423975534e-06  7.8355808019175130e-06  7.8970358103113854e-06  7.9779815933962633e-06  8.0827717554343865e-06  8.2125748682531814e-06  8.3639493674959968e-06  8.5361018081309167e-06  8.7245730264489991e-06  8.9410167643000511e-06  9.2108997519574418e-06  9.6041029800805040e-06  1.0784855363365595e-05  1.6368499364544689e-05  2.6449253800746439e-03  3.1018523106103819e-02  7.6071366153339523e-02  1.2835746621775804e-01  1.7553678461387603e-01  2.0848960729827723e-01  2.0794047211530539e-01  1.1421195575697639e-01  2.3332382243853387e-05  4.0189869628451663e-01  4.6439135577245411e-01  4.9583080797222912e-01  4.2316271874331612e-01  3.5504231166133565e-01  2.7502371980247414e-01  1.9390224697586425e-01  1.1974027334408453e-01  6.0028417310302555e-02  1.6926665071836548e-02  2.9315230038468390e-05  1.1339543279990005e-05  9.4227559801309418e-06  9.0096356608214291e-06  8.7663505900264183e-06  8.5520100321869262e-06  8.3579331033449334e-06  8.1865965295785067e-06  8.0449922078311056e-06  7.9361676945156121e-06  7.8553815132991258e-06  7.7951996609844204e-06  7.7498199214580683e-06  7.7168737538366853e-06  7.6966771302714607e-06  7.6902244927768944e-06  7.6979219046295465e-06  7.7191521645527901e-06  7.7526977933814006e-06  7.7987245253881447e-06  7.8604093354857758e-06  7.9440262778101116e-06  8.0573074809419302e-06  8.2043444288499969e-06  8.3748689123824463e-06  8.5800080851499651e-06  8.8051393517098974e-06  9.1460679827001037e-06  9.8959225569864263e-06  1.1808715280422646e-05  2.3700120679073929e-05  1.1826259397812119e-02  5.3678826748496361e-02  1.1631833568065557e-01  1.8991517946516831e-01  2.7078203044808341e-01  3.5093928757888743e-01  4.1785646783406111e-01  4.4836519306285560e-01  4.6957151529652613e-01  3.5713264455933436e-01  9.9992189233688422e-01  9.8918968116122930e-01  7.8703665467148820e-01  6.6358588805101903e-01  5.5695877879548417e-01  4.4341829952597489e-01  3.3571668136026256e-01  2.3514331827449636e-01  1.4695675525816274e-01  7.6795175093699222e-02  2.7380807727799283e-02  1.9585284275416107e-04  1.2627416250550897e-05  9.4682933909694373e-06  8.8950932441355577e-06  8.6010500429211580e-06  8.3713731890443880e-06  8.1707224060991991e-06  8.0096813306636550e-06  7.8940993083387462e-06  7.8133324038660541e-06  7.7547767448614429e-06  7.7095772075946805e-06  7.6751057668709070e-06  7.6532327335052627e-06  7.6461828922761234e-06  7.6547086949148152e-06  7.6777607864241368e-06  7.7124233435316865e-06  7.7576107734221427e-06  7.8175732718390112e-06  7.9019458498660618e-06  8.0228060143274795e-06  8.1967945956975630e-06  8.3919877389972234e-06  8.6528802182165921e-06  8.9951528800423890e-06  1.0133091714342451e-05  1.3272269499237421e-05  5.0414374603745398e-05  2.1592117880339871e-02  7.1632999794295507e-02  1.4404805097142154e-01  2.3134557295475383e-01  3.3189902659048431e-01  4.4171563403961817e-01  5.4431345608331072e-01  6.5600686168976463e-01  8.0545964637409595e-01  9.9937770848212237e-01  9.9977088478728382e-01  9.9998426159153342e-01  9.9998625949517328e-01  9.9995111140293436e-01  9.0646732376887795e-01  7.4467920624523132e-01  6.1555329845282636e-01  4.8900823044480252e-01  3.6934274487137625e-01  2.6021626424054101e-01  1.6609090218826020e-01  9.1331994787664045e-02  3.8624825035215096e-02  5.5216711713796888e-03  1.6232651803850934e-05  9.9837810526053494e-06  8.8071220678026031e-06  8.4323705117227667e-06  8.1644237280745904e-06  7.9697562034698220e-06  7.8472445312408520e-06  7.7686154107948280e-06  7.7139214061163416e-06  7.6691995954232942e-06  7.6317817466809747e-06  7.6070510584275557e-06  7.5990924247033121e-06  7.6088451640820722e-06  7.6354773175004971e-06  7.6727908798113518e-06  7.7165544293147453e-06  7.7736186299968571e-06  7.8578442585445928e-06  7.9879966327526253e-06  8.2193252242511777e-06  8.4916817763011934e-06  9.0893278433215454e-06  1.0537017872926637e-05  1.6075053573448681e-05  2.2800251485104069e-03  3.2782606026975719e-02  8.7502495273322212e-02  1.6341672643133884e-01  2.5732483365272962e-01  3.6676602101751915e-01  4.8843690516559563e-01  6.1000185034610355e-01  7.4138098943743136e-01  9.3973371153808305e-01  9.9996766293518580e-01  9.9998775002447327e-01  9.9997841586230585e-01  9.9998959821362476e-01  9.9999307989031938e-01  9.9998613786664592e-01  9.9994669045279483e-01  9.1122765985596466e-01  7.6786379994976295e-01  6.3663544146801876e-01  5.0861089552085093e-01  3.8716607874581904e-01  2.7688983865432032e-01  1.8241074194321608e-01  1.0682206714307711e-01  5.2145381910043871e-02  1.6044942730548586e-02  4.1294318564293449e-05  1.2744339887282472e-05  9.5070779337163285e-06  8.4943682385629386e-06  8.0876110172735145e-06  7.8947239216728133e-06  7.7861816359433682e-06  7.7198567132605494e-06  7.6663358961529813e-06  7.6190882885918756e-06  7.5883526724218168e-06  7.5789942833628438e-06  7.5912376668322695e-06  7.6269601320842398e-06  7.6759104098462999e-06  7.7308712107253985e-06  7.8099176525521152e-06  7.9408816846804467e-06  8.1792530299884472e-06  8.8079147433848839e-06  9.9399386554189735e-06  1.2575050898918185e-05  3.1682286412191801e-05  1.1675052312836245e-02  4.7338660591499424e-02  1.0446807737625635e-01  1.7978367843090254e-01  2.7457733760040881e-01  3.8560334186473344e-01  5.0856864216742148e-01  6.3646193231655734e-01  7.6491356828216994e-01  9.3895008233384203e-01  9.9995845279589923e-01  9.9998654577721868e-01  9.9999306848712810e-01  9.9998877603826786e-01  9.9998898990537577e-01  9.9999360209903065e-01  9.9998940161896432e-01  9.9997585195975813e-01  9.9984428685492788e-01  8.8379769825336496e-01  7.6344401878966683e-01  6.3893532939920461e-01  5.1580592487922527e-01  3.9844894957659488e-01  2.9214821609013458e-01  2.0114662388440591e-01  1.2784879658917525e-01  7.3378632382436679e-02  3.6024217020968724e-02  1.1581051672497903e-02  6.1533692877247326e-05  1.6557142883157940e-05  1.1676897767526457e-05  1.0121617826219184e-05  9.3698526630166287e-06  8.9680162235684358e-06  8.7028079266763093e-06  8.5280959125942039e-06  8.4441724875124230e-06  8.4255359059923797e-06  8.4640371702788607e-06  8.5808320818939390e-06  8.7587702053151209e-06  8.9966266156415123e-06  9.4091318861208336e-06  1.0151913009064168e-05  1.1610216072700109e-05  1.5967294217910422e-05  4.9060113217053457e-05  8.7574492002060640e-03  3.1176102124499158e-02  7.0267125699229910e-02  1.2613986094717461e-01  1.9908560178147308e-01  2.9032725684060612e-01  3.9778466826771658e-01  5.1609471122576189e-01  6.4082400521748162e-01  7.6277117068685363e-01  8.9725996961684440e-01  9.9988914076826363e-01  9.9997569760562244e-01  9.9998902455447902e-01  9.9999344085375041e-01  9.9998965147257524e-01  9.9997992025920990e-01  9.9999041289070623e-01  9.9998605499807147e-01  9.9997491638385982e-01  9.9992588139718508e-01  9.6119991426984086e-01  8.5604387992156483e-01  7.4887045403451935e-01  6.3485922932305860e-01  5.2025484849154402e-01  4.1119099401930742e-01  3.1284936442172484e-01  2.2891381265057736e-01  1.6119716846012763e-01  1.0949366189185843e-01  7.2357922932432664e-02  4.6802583762774748e-02  2.8543569078426503e-02  1.6314273070940029e-02  9.2983565018264214e-03  4.7032517807522531e-03  1.8638147567937573e-03  3.6290332943854169e-04  1.1609765220604312e-04  7.9179634862079623e-05  7.1865327693848677e-05  7.7762263525468176e-05  1.0984326328976766e-04  3.0914103991921472e-04  1.6520625773142441e-03  4.2872213594398771e-03  8.5489384691334706e-03  1.5057786917128505e-02  2.5441852702447542e-02  4.3131660682099622e-02  7.0388701368216122e-02  1.0835208475041469e-01  1.5997828842583145e-01  2.2750919352310009e-01  3.1190087412214462e-01  4.1116797052710857e-01  5.2116472407641867e-01  6.3671559926845689e-01  7.5190876751030389e-01  8.5976284791091639e-01  9.7025988712633648e-01  9.9992273264286624e-01  9.9997230342372800e-01  9.9998485158164108e-01  9.9998978906402869e-01  9.9998487719446083e-01  9.9978808871680636e-01  9.9995686261823957e-01  9.9995442853273264e-01  9.9993730247459445e-01  9.9986388050572661e-01  9.8091283818260366e-01  9.0877467917057442e-01  8.2995846808098139e-01  7.3464717063725693e-01  6.3254606737598407e-01  5.2992219566797627e-01  4.3309167655241243e-01  3.4683319233952042e-01  2.7397534704049797e-01  2.1544130288425120e-01  1.7038141016726535e-01  1.3672067535432783e-01  1.1244344051918763e-01  9.5677259146125446e-02  8.4043857937555408e-02  7.5730548797530897e-02  7.0064137097058457e-02  6.6294735377709885e-02  6.3797198597351265e-02  6.2293406179695997e-02  6.1782118939862046e-02  6.2098156251042778e-02  6.3327816291337172e-02  6.5758982317827064e-02  6.9566598492410731e-02  7.5128585087190475e-02  8.3323539010590586e-02  9.5183967413501311e-02  1.1231665674410592e-01  1.3661905691425918e-01  1.6986095557286296e-01  2.1460717557562797e-01  2.7340522411259410e-01  3.4682321839715030e-01  4.3378093618756741e-01  5.3132094184846324e-01  6.3480155732735533e-01  7.3797035823947110e-01  8.3388692677839871e-01  9.1663397794026291e-01  9.8099634371534949e-01  9.9983054656359593e-01  9.9992867681961584e-01  9.9995435897022722e-01  9.9996271187432650e-01  9.9993979717104675e-01  3.3938133292828465e-01  6.4707650128418648e-01  8.0589419752849289e-01  9.0139607490409990e-01  9.4154176444241000e-01  9.4462788864252289e-01  9.2240642128767425e-01  8.7646064639610344e-01  8.0812022856576349e-01  7.2689709586873552e-01  6.3938551578424085e-01  5.5277182209255060e-01  4.727399350