<?xml version="1.0"?>
<VTKFile type="UnstructuredGrid"  version="0.1"  >
<UnstructuredGrid>
<Piece  NumberOfPoints="2601" NumberOfCells="5000">
<Points>
<DataArray  type="Float64"  NumberOfComponents="3"  format="ascii">0 0 0  0.03 0 0  0.06 0 0  0.09 0 0  0.12 0 0  0.15 0 0  0.18 0 0  0.21 0 0  0.24 0 0  0.27 0 0  0.3 0 0  0.33 0 0  0.36 0 0  0.39 0 0  0.42 0 0  0.45 0 0  0.48 0 0  0.51 0 0  0.54 0 0  0.57 0 0  0.6 0 0  0.63 0 0  0.66 0 0  0.6899999999999999 0 0  0.72 0 0  0.75 0 0  0.78 0 0  0.8100000000000001 0 0  0.84 0 0  0.87 0 0  0.9 0 0  0.93 0 0  0.96 0 0  0.99 0 0  1.02 0 0  1.05 0 0  1.08 0 0  1.11 0 0  1.14 0 0  1.17 0 0  1.2 0 0  1.23 0 0  1.26 0 0  1.29 0 0  1.32 0 0  1.35 0 0  1.38 0 0  1.41 0 0  1.44 0 0  1.47 0 0  1.5 0 0  0 0.02 0  0.03 0.02 0  0.06 0.02 0  0.09 0.02 0  0.12 0.02 0  0.15 0.02 0  0.18 0.02 0  0.21 0.02 0  0.24 0.02 0  0.27 0.02 0  0.3 0.02 0  0.33 0.02 0  0.36 0.02 0  0.39 0.02 0  0.42 0.02 0  0.45 0.02 0  0.48 0.02 0  0.51 0.02 0  0.54 0.02 0  0.57 0.02 0  0.6 0.02 0  0.63 0.02 0  0.66 0.02 0  0.6899999999999999 0.02 0  0.72 0.02 0  0.75 0.02 0  0.78 0.02 0  0.8100000000000001 0.02 0  0.84 0.02 0  0.87 0.02 0  0.9 0.02 0  0.93 0.02 0  0.96 0.02 0  0.99 0.02 0  1.02 0.02 0  1.05 0.02 0  1.08 0.02 0  1.11 0.02 0  1.14 0.02 0  1.17 0.02 0  1.2 0.02 0  1.23 0.02 0  1.26 0.02 0  1.29 0.02 0  1.32 0.02 0  1.35 0.02 0  1.38 0.02 0  1.41 0.02 0  1.44 0.02 0  1.47 0.02 0  1.5 0.02 0  0 0.04 0  0.03 0.04 0  0.06 0.04 0  0.09 0.04 0  0.12 0.04 0  0.15 0.04 0  0.18 0.04 0  0.21 0.04 0  0.24 0.04 0  0.27 0.04 0  0.3 0.04 0  0.33 0.04 0  0.36 0.04 0  0.39 0.04 0  0.42 0.04 0  0.45 0.04 0  0.48 0.04 0  0.51 0.04 0  0.54 0.04 0  0.57 0.04 0  0.6 0.04 0  0.63 0.04 0  0.66 0.04 0  0.6899999999999999 0.04 0  0.72 0.04 0  0.75 0.04 0  0.78 0.04 0  0.8100000000000001 0.04 0  0.84 0.04 0  0.87 0.04 0  0.9 0.04 0  0.93 0.04 0  0.96 0.04 0  0.99 0.04 0  1.02 0.04 0  1.05 0.04 0  1.08 0.04 0  1.11 0.04 0  1.14 0.04 0  1.17 0.04 0  1.2 0.04 0  1.23 0.04 0  1.26 0.04 0  1.29 0.04 0  1.32 0.04 0  1.35 0.04 0  1.38 0.04 0  1.41 0.04 0  1.44 0.04 0  1.47 0.04 0  1.5 0.04 0  0 0.06 0  0.03 0.06 0  0.06 0.06 0  0.09 0.06 0  0.12 0.06 0  0.15 0.06 0  0.18 0.06 0  0.21 0.06 0  0.24 0.06 0  0.27 0.06 0  0.3 0.06 0  0.33 0.06 0  0.36 0.06 0  0.39 0.06 0  0.42 0.06 0  0.45 0.06 0  0.48 0.06 0  0.51 0.06 0  0.54 0.06 0  0.57 0.06 0  0.6 0.06 0  0.63 0.06 0  0.66 0.06 0  0.6899999999999999 0.06 0  0.72 0.06 0  0.75 0.06 0  0.78 0.06 0  0.8100000000000001 0.06 0  0.84 0.06 0  0.87 0.06 0  0.9 0.06 0  0.93 0.06 0  0.96 0.06 0  0.99 0.06 0  1.02 0.06 0  1.05 0.06 0  1.08 0.06 0  1.11 0.06 0  1.14 0.06 0  1.17 0.06 0  1.2 0.06 0  1.23 0.06 0  1.26 0.06 0  1.29 0.06 0  1.32 0.06 0  1.35 0.06 0  1.38 0.06 0  1.41 0.06 0  1.44 0.06 0  1.47 0.06 0  1.5 0.06 0  0 0.08 0  0.03 0.08 0  0.06 0.08 0  0.09 0.08 0  0.12 0.08 0  0.15 0.08 0  0.18 0.08 0  0.21 0.08 0  0.24 0.08 0  0.27 0.08 0  0.3 0.08 0  0.33 0.08 0  0.36 0.08 0  0.39 0.08 0  0.42 0.08 0  0.45 0.08 0  0.48 0.08 0  0.51 0.08 0  0.54 0.08 0  0.57 0.08 0  0.6 0.08 0  0.63 0.08 0  0.66 0.08 0  0.6899999999999999 0.08 0  0.72 0.08 0  0.75 0.08 0  0.78 0.08 0  0.8100000000000001 0.08 0  0.84 0.08 0  0.87 0.08 0  0.9 0.08 0  0.93 0.08 0  0.96 0.08 0  0.99 0.08 0  1.02 0.08 0  1.05 0.08 0  1.08 0.08 0  1.11 0.08 0  1.14 0.08 0  1.17 0.08 0  1.2 0.08 0  1.23 0.08 0  1.26 0.08 0  1.29 0.08 0  1.32 0.08 0  1.35 0.08 0  1.38 0.08 0  1.41 0.08 0  1.44 0.08 0  1.47 0.08 0  1.5 0.08 0  0 0.1 0  0.03 0.1 0  0.06 0.1 0  0.09 0.1 0  0.12 0.1 0  0.15 0.1 0  0.18 0.1 0  0.21 0.1 0  0.24 0.1 0  0.27 0.1 0  0.3 0.1 0  0.33 0.1 0  0.36 0.1 0  0.39 0.1 0  0.42 0.1 0  0.45 0.1 0  0.48 0.1 0  0.51 0.1 0  0.54 0.1 0  0.57 0.1 0  0.6 0.1 0  0.63 0.1 0  0.66 0.1 0  0.6899999999999999 0.1 0  0.72 0.1 0  0.75 0.1 0  0.78 0.1 0  0.8100000000000001 0.1 0  0.84 0.1 0  0.87 0.1 0  0.9 0.1 0  0.93 0.1 0  0.96 0.1 0  0.99 0.1 0  1.02 0.1 0  1.05 0.1 0  1.08 0.1 0  1.11 0.1 0  1.14 0.1 0  1.17 0.1 0  1.2 0.1 0  1.23 0.1 0  1.26 0.1 0  1.29 0.1 0  1.32 0.1 0  1.35 0.1 0  1.38 0.1 0  1.41 0.1 0  1.44 0.1 0  1.47 0.1 0  1.5 0.1 0  0 0.12 0  0.03 0.12 0  0.06 0.12 0  0.09 0.12 0  0.12 0.12 0  0.15 0.12 0  0.18 0.12 0  0.21 0.12 0  0.24 0.12 0  0.27 0.12 0  0.3 0.12 0  0.33 0.12 0  0.36 0.12 0  0.39 0.12 0  0.42 0.12 0  0.45 0.12 0  0.48 0.12 0  0.51 0.12 0  0.54 0.12 0  0.57 0.12 0  0.6 0.12 0  0.63 0.12 0  0.66 0.12 0  0.6899999999999999 0.12 0  0.72 0.12 0  0.75 0.12 0  0.78 0.12 0  0.8100000000000001 0.12 0  0.84 0.12 0  0.87 0.12 0  0.9 0.12 0  0.93 0.12 0  0.96 0.12 0  0.99 0.12 0  1.02 0.12 0  1.05 0.12 0  1.08 0.12 0  1.11 0.12 0  1.14 0.12 0  1.17 0.12 0  1.2 0.12 0  1.23 0.12 0  1.26 0.12 0  1.29 0.12 0  1.32 0.12 0  1.35 0.12 0  1.38 0.12 0  1.41 0.12 0  1.44 0.12 0  1.47 0.12 0  1.5 0.12 0  0 0.14 0  0.03 0.14 0  0.06 0.14 0  0.09 0.14 0  0.12 0.14 0  0.15 0.14 0  0.18 0.14 0  0.21 0.14 0  0.24 0.14 0  0.27 0.14 0  0.3 0.14 0  0.33 0.14 0  0.36 0.14 0  0.39 0.14 0  0.42 0.14 0  0.45 0.14 0  0.48 0.14 0  0.51 0.14 0  0.54 0.14 0  0.57 0.14 0  0.6 0.14 0  0.63 0.14 0  0.66 0.14 0  0.6899999999999999 0.14 0  0.72 0.14 0  0.75 0.14 0  0.78 0.14 0  0.8100000000000001 0.14 0  0.84 0.14 0  0.87 0.14 0  0.9 0.14 0  0.93 0.14 0  0.96 0.14 0  0.99 0.14 0  1.02 0.14 0  1.05 0.14 0  1.08 0.14 0  1.11 0.14 0  1.14 0.14 0  1.17 0.14 0  1.2 0.14 0  1.23 0.14 0  1.26 0.14 0  1.29 0.14 0  1.32 0.14 0  1.35 0.14 0  1.38 0.14 0  1.41 0.14 0  1.44 0.14 0  1.47 0.14 0  1.5 0.14 0  0 0.16 0  0.03 0.16 0  0.06 0.16 0  0.09 0.16 0  0.12 0.16 0  0.15 0.16 0  0.18 0.16 0  0.21 0.16 0  0.24 0.16 0  0.27 0.16 0  0.3 0.16 0  0.33 0.16 0  0.36 0.16 0  0.39 0.16 0  0.42 0.16 0  0.45 0.16 0  0.48 0.16 0  0.51 0.16 0  0.54 0.16 0  0.57 0.16 0  0.6 0.16 0  0.63 0.16 0  0.66 0.16 0  0.6899999999999999 0.16 0  0.72 0.16 0  0.75 0.16 0  0.78 0.16 0  0.8100000000000001 0.16 0  0.84 0.16 0  0.87 0.16 0  0.9 0.16 0  0.93 0.16 0  0.96 0.16 0  0.99 0.16 0  1.02 0.16 0  1.05 0.16 0  1.08 0.16 0  1.11 0.16 0  1.14 0.16 0  1.17 0.16 0  1.2 0.16 0  1.23 0.16 0  1.26 0.16 0  1.29 0.16 0  1.32 0.16 0  1.35 0.16 0  1.38 0.16 0  1.41 0.16 0  1.44 0.16 0  1.47 0.16 0  1.5 0.16 0  0 0.18 0  0.03 0.18 0  0.06 0.18 0  0.09 0.18 0  0.12 0.18 0  0.15 0.18 0  0.18 0.18 0  0.21 0.18 0  0.24 0.18 0  0.27 0.18 0  0.3 0.18 0  0.33 0.18 0  0.36 0.18 0  0.39 0.18 0  0.42 0.18 0  0.45 0.18 0  0.48 0.18 0  0.51 0.18 0  0.54 0.18 0  0.57 0.18 0  0.6 0.18 0  0.63 0.18 0  0.66 0.18 0  0.6899999999999999 0.18 0  0.72 0.18 0  0.75 0.18 0  0.78 0.18 0  0.8100000000000001 0.18 0  0.84 0.18 0  0.87 0.18 0  0.9 0.18 0  0.93 0.18 0  0.96 0.18 0  0.99 0.18 0  1.02 0.18 0  1.05 0.18 0  1.08 0.18 0  1.11 0.18 0  1.14 0.18 0  1.17 0.18 0  1.2 0.18 0  1.23 0.18 0  1.26 0.18 0  1.29 0.18 0  1.32 0.18 0  1.35 0.18 0  1.38 0.18 0  1.41 0.18 0  1.44 0.18 0  1.47 0.18 0  1.5 0.18 0  0 0.2 0  0.03 0.2 0  0.06 0.2 0  0.09 0.2 0  0.12 0.2 0  0.15 0.2 0  0.18 0.2 0  0.21 0.2 0  0.24 0.2 0  0.27 0.2 0  0.3 0.2 0  0.33 0.2 0  0.36 0.2 0  0.39 0.2 0  0.42 0.2 0  0.45 0.2 0  0.48 0.2 0  0.51 0.2 0  0.54 0.2 0  0.57 0.2 0  0.6 0.2 0  0.63 0.2 0  0.66 0.2 0  0.6899999999999999 0.2 0  0.72 0.2 0  0.75 0.2 0  0.78 0.2 0  0.8100000000000001 0.2 0  0.84 0.2 0  0.87 0.2 0  0.9 0.2 0  0.93 0.2 0  0.96 0.2 0  0.99 0.2 0  1.02 0.2 0  1.05 0.2 0  1.08 0.2 0  1.11 0.2 0  1.14 0.2 0  1.17 0.2 0  1.2 0.2 0  1.23 0.2 0  1.26 0.2 0  1.29 0.2 0  1.32 0.2 0  1.35 0.2 0  1.38 0.2 0  1.41 0.2 0  1.44 0.2 0  1.47 0.2 0  1.5 0.2 0  0 0.22 0  0.03 0.22 0  0.06 0.22 0  0.09 0.22 0  0.12 0.22 0  0.15 0.22 0  0.18 0.22 0  0.21 0.22 0  0.24 0.22 0  0.27 0.22 0  0.3 0.22 0  0.33 0.22 0  0.36 0.22 0  0.39 0.22 0  0.42 0.22 0  0.45 0.22 0  0.48 0.22 0  0.51 0.22 0  0.54 0.22 0  0.57 0.22 0  0.6 0.22 0  0.63 0.22 0  0.66 0.22 0  0.6899999999999999 0.22 0  0.72 0.22 0  0.75 0.22 0  0.78 0.22 0  0.8100000000000001 0.22 0  0.84 0.22 0  0.87 0.22 0  0.9 0.22 0  0.93 0.22 0  0.96 0.22 0  0.99 0.22 0  1.02 0.22 0  1.05 0.22 0  1.08 0.22 0  1.11 0.22 0  1.14 0.22 0  1.17 0.22 0  1.2 0.22 0  1.23 0.22 0  1.26 0.22 0  1.29 0.22 0  1.32 0.22 0  1.35 0.22 0  1.38 0.22 0  1.41 0.22 0  1.44 0.22 0  1.47 0.22 0  1.5 0.22 0  0 0.24 0  0.03 0.24 0  0.06 0.24 0  0.09 0.24 0  0.12 0.24 0  0.15 0.24 0  0.18 0.24 0  0.21 0.24 0  0.24 0.24 0  0.27 0.24 0  0.3 0.24 0  0.33 0.24 0  0.36 0.24 0  0.39 0.24 0  0.42 0.24 0  0.45 0.24 0  0.48 0.24 0  0.51 0.24 0  0.54 0.24 0  0.57 0.24 0  0.6 0.24 0  0.63 0.24 0  0.66 0.24 0  0.6899999999999999 0.24 0  0.72 0.24 0  0.75 0.24 0  0.78 0.24 0  0.8100000000000001 0.24 0  0.84 0.24 0  0.87 0.24 0  0.9 0.24 0  0.93 0.24 0  0.96 0.24 0  0.99 0.24 0  1.02 0.24 0  1.05 0.24 0  1.08 0.24 0  1.11 0.24 0  1.14 0.24 0  1.17 0.24 0  1.2 0.24 0  1.23 0.24 0  1.26 0.24 0  1.29 0.24 0  1.32 0.24 0  1.35 0.24 0  1.38 0.24 0  1.41 0.24 0  1.44 0.24 0  1.47 0.24 0  1.5 0.24 0  0 0.26 0  0.03 0.26 0  0.06 0.26 0  0.09 0.26 0  0.12 0.26 0  0.15 0.26 0  0.18 0.26 0  0.21 0.26 0  0.24 0.26 0  0.27 0.26 0  0.3 0.26 0  0.33 0.26 0  0.36 0.26 0  0.39 0.26 0  0.42 0.26 0  0.45 0.26 0  0.48 0.26 0  0.51 0.26 0  0.54 0.26 0  0.57 0.26 0  0.6 0.26 0  0.63 0.26 0  0.66 0.26 0  0.6899999999999999 0.26 0  0.72 0.26 0  0.75 0.26 0  0.78 0.26 0  0.8100000000000001 0.26 0  0.84 0.26 0  0.87 0.26 0  0.9 0.26 0  0.93 0.26 0  0.96 0.26 0  0.99 0.26 0  1.02 0.26 0  1.05 0.26 0  1.08 0.26 0  1.11 0.26 0  1.14 0.26 0  1.17 0.26 0  1.2 0.26 0  1.23 0.26 0  1.26 0.26 0  1.29 0.26 0  1.32 0.26 0  1.35 0.26 0  1.38 0.26 0  1.41 0.26 0  1.44 0.26 0  1.47 0.26 0  1.5 0.26 0  0 0.28 0  0.03 0.28 0  0.06 0.28 0  0.09 0.28 0  0.12 0.28 0  0.15 0.28 0  0.18 0.28 0  0.21 0.28 0  0.24 0.28 0  0.27 0.28 0  0.3 0.28 0  0.33 0.28 0  0.36 0.28 0  0.39 0.28 0  0.42 0.28 0  0.45 0.28 0  0.48 0.28 0  0.51 0.28 0  0.54 0.28 0  0.57 0.28 0  0.6 0.28 0  0.63 0.28 0  0.66 0.28 0  0.6899999999999999 0.28 0  0.72 0.28 0  0.75 0.28 0  0.78 0.28 0  0.8100000000000001 0.28 0  0.84 0.28 0  0.87 0.28 0  0.9 0.28 0  0.93 0.28 0  0.96 0.28 0  0.99 0.28 0  1.02 0.28
[...]
<PointData  Scalars="ControlVisualisation"> 
<DataArray  type="Float64"  Name="ControlVisualisation"  format="ascii">5.0297198593793432e-02  3.4377234934183619e-02  3.4433124368362253e-02  3.4548489805190395e-02  3.4722866077689471e-02  3.4931984885463667e-02  3.5144950938627732e-02  3.5340104994984273e-02  3.5508218374004474e-02  3.5647348312334619e-02  3.5756733980672875e-02  3.5834810902393849e-02  3.5881794070197641e-02  3.5902582180774072e-02  3.5905591474153571e-02  3.5898422826383357e-02  3.5885046966358129e-02  3.5866727352301231e-02  3.5844511592518030e-02  3.5820369705158325e-02  3.5796620038350095e-02  3.5775137973123712e-02  3.5757275087965876e-02  3.5744173088966977e-02  3.5736880839183548e-02  3.5736142395856284e-02  3.5742089970187213e-02  3.5754090100799558e-02  3.5770834289904622e-02  3.5790635242589991e-02  3.5811855394168368e-02  3.5833379844069570e-02  3.5854905631151159e-02  3.5876610130643707e-02  3.5897864594574405e-02  3.5915360658331758e-02  3.5922060709960568e-02  3.5908749842206003e-02  3.5868170522750195e-02  3.5798322553936411e-02  3.5701163821240015e-02  3.5577949088325907e-02  3.5426629639949483e-02  3.5244779436801404e-02  3.5036315876086847e-02  3.4817783003617209e-02  3.4619495233836228e-02  3.4474035588079766e-02  3.4394456964407953e-02  3.4364283089427836e-02  8.2824226651620717e-02  3.4369509516019935e-02  1.7384083191799751e-02  1.7484714884568858e-02  1.7708158306336257e-02  1.8068824531407471e-02  1.8527654420169244e-02  1.9019250598495699e-02  1.9488056881294253e-02  1.9905023709224683e-02  2.0261722660093056e-02  2.0553728649838173e-02  2.0771654520519652e-02  2.0908544662427433e-02  2.0972375545358031e-02  2.0986261904194607e-02  2.0974377824866310e-02  2.0949038125046400e-02  2.0911687120528058e-02  2.0862443918250380e-02  2.0805479341185946e-02  2.0747256690125410e-02  2.0693252015776174e-02  2.0647206835204015e-02  2.0612147806660933e-02  2.0591009013995725e-02  2.0586157626321967e-02  2.0598422405475266e-02  2.0626426242315032e-02  2.0666621895728082e-02  2.0714038851693099e-02  2.0763632497662741e-02  2.0812036460321422e-02  2.0859073838538279e-02  2.0907547184800219e-02  2.0959534612050378e-02  2.1009495428009450e-02  2.1039033881286001e-02  2.1020491674962366e-02  2.0930465718555644e-02  2.0762660684443598e-02  2.0526654191617966e-02  2.0232658374438654e-02  1.9879084611688490e-02  1.9458780925088237e-02  1.8978499833380513e-02  1.8474177580092992e-02  1.8010873804056568e-02  1.7660434588226352e-02  1.7457999744120847e-02  1.7374046433785713e-02  3.4363005653555427e-02  3.4388465316347670e-02  1.7420855027640684e-02  1.7587379661370452e-02  1.7952515711466301e-02  1.8540014963991543e-02  1.9282986900247778e-02  2.0076157113720031e-02  2.0831637211034114e-02  2.1507281211102972e-02  2.2097344143991875e-02  2.2596316970273544e-02  2.2977345564871878e-02  2.3212729518343408e-02  2.3309547294803248e-02  2.3314995475437288e-02  2.3282510957851638e-02  2.3236181714292852e-02  2.3172044633732833e-02  2.3084694039123447e-02  2.2981561883033970e-02  2.2876464391626022e-02  2.2779844790783162e-02  2.2697347227111715e-02  2.2633537224509837e-02  2.2593948932127992e-02  2.2583745529259874e-02  2.2605075176280090e-02  2.2655449662528627e-02  2.2727989536333842e-02  2.2813038912252330e-02  2.2900631217658042e-02  2.2983864866678399e-02  2.3062774011529778e-02  2.3145715795392319e-02  2.3242718644703678e-02  2.3349076355170625e-02  2.3430169414032514e-02  2.3426975027314743e-02  2.3287734311915137e-02  2.3001338674477720e-02  2.2598523090602715e-02  2.2115056651594543e-02  2.1553716913033715e-02  2.0892030038817060e-02  2.0127635448442885e-02  1.9310137312421729e-02  1.8537807737107819e-02  1.7931560226070259e-02  1.7567204261580850e-02  1.7409928694969268e-02  3.4376194101927458e-02  3.4408888302830024e-02  1.7474999298371121e-02  1.7735914171079021e-02  1.8252337083384029e-02  1.9007514809711950e-02  1.9878545023515777e-02  2.0737699319938255e-02  2.1508370538572408e-02  2.2179004024737485e-02  2.2776487468909416e-02  2.3304941712598299e-02  2.3715189252182023e-02  2.3949568116452859e-02  2.4009719210257300e-02  2.3967137128630349e-02  2.3902374887930990e-02  2.3841634278862670e-02  2.3764201045701580e-02  2.3654467131147758e-02  2.3523895537331457e-02  2.3394025724813174e-02  2.3277842686306446e-02  2.3179364406601274e-02  2.3102127293316111e-02  2.3053020125327405e-02  2.3039614671320471e-02  2.3065527855710661e-02  2.3127849487236438e-02  2.3217727821711248e-02  2.3322736867335259e-02  2.3429794837452812e-02  2.3529137105373552e-02  2.3620236090443072e-02  2.3716490713354410e-02  2.3838853497530121e-02  2.3991425728368990e-02  2.4133146357042196e-02  2.4179622108596741e-02  2.4052155649531094e-02  2.3737314658508681e-02  2.3295188758013719e-02  2.2798050444679353e-02  2.2255780330901684e-02  2.1617224649083916e-02  2.0843433850891640e-02  1.9954467168693184e-02  1.9031680424512202e-02  1.8229491749382824e-02  1.7697209281705199e-02  1.7452008630088649e-02  3.4396003709731615e-02  3.4411404621379184e-02  1.7558008092466385e-02  1.8082515135236368e-02  1.8987735863120324e-02  2.0078263390514731e-02  2.1088449397396777e-02  2.1886382735522656e-02  2.2480557623168959e-02  2.2959311840890596e-02  2.3421867210538502e-02  2.3889248949914774e-02  2.4271757638063805e-02  2.4457012836996757e-02  2.4432356532717091e-02  2.4304802235072323e-02  2.4194027902667389e-02  2.4121681358228966e-02  2.4034060857175861e-02  2.3899420042215565e-02  2.3737669976928739e-02  2.3582527938760759e-02  2.3449093380619165e-02  2.3337008105712854e-02  2.3247230612240127e-02  2.3188091407758099e-02  2.3170332015106473e-02  2.3199719734840630e-02  2.3273283369689798e-02  2.3380340778158797e-02  2.3505695692673440e-02  2.3632845131203933e-02  2.3748125837471989e-02  2.3848787437399481e-02  2.3953175905861521e-02  2.4098238280918356e-02  2.4306724025846514e-02  2.4537167165170008e-02  2.4673023742835157e-02  2.4595183587472241e-02  2.4286568465658825e-02  2.3857438881209732e-02  2.3448823088102567e-02  2.3092242957848556e-02  2.2688680422760666e-02  2.2116275085838494e-02  2.1288752806379672e-02  2.0189526224670930e-02  1.8976006241962447e-02  1.7999758562407629e-02  1.7502599777736771e-02  3.4405802062150811e-02  3.4400459474528647e-02  1.7775898209396138e-02  1.9374937892823518e-02  2.1825912493876949e-02  2.3970376374595884e-02  2.5070031105116752e-02  2.5203976907884357e-02  2.4883242216286794e-02  2.4572614979107316e-02  2.4519225520944377e-02  2.4709010940637873e-02  2.4937965526808020e-02  2.4984304012560146e-02  2.4797788319167405e-02  2.4532488490517954e-02  2.4363272819514958e-02  2.4290293121790089e-02  2.4198077320708326e-02  2.4032400859511884e-02  2.3830550686315868e-02  2.3645790760611234e-02  2.3494958443607709e-02  2.3369542217304591e-02  2.3266126374024206e-02  2.3194949075826983e-02  2.3171137657991864e-02  2.3203536436758401e-02  2.3289474995871983e-02  2.3416391190788893e-02  2.3565910272539195e-02  2.3717249012275038e-02  2.3851187503773432e-02  2.3960048163661405e-02  2.4065729839149886e-02  2.4227571622039042e-02  2.4503549040319095e-02  2.4864467610220101e-02  2.5151568069735036e-02  2.5183871635161576e-02  2.4944789304533449e-02  2.4642374130437145e-02  2.4572317444878273e-02  2.4870027553627379e-02  2.5410413216719586e-02  2.5902729397344403e-02  2.5894918321547351e-02  2.4711340363434656e-02  2.1965624203635507e-02  1.9012128641710657e-02  1.7598741348641131e-02  3.4393090650410303e-02  3.4545195936034598e-02  1.9111240886974704e-02  2.6699958672005791e-02  3.8148666114515964e-02  4.4873812056885315e-02  4.3509607592437799e-02  3.8200145441776856e-02  3.2829616062014289e-02  2.9136000141775815e-02  2.7202401141814925e-02  2.6428718950799845e-02  2.6119626822835022e-02  2.5770266130734139e-02  2.5224922843514744e-02  2.4695918187181434e-02  2.4443628290989908e-02  2.4403403133455952e-02  2.4326212229012358e-02  2.4123252619947147e-02  2.3869487373226739e-02  2.3649979910172467e-02  2.3481537669293964e-02  2.3342506963742442e-02  2.3223385505975306e-02  2.3137165403464235e-02  2.3104838414910636e-02  2.3139422840668403e-02  2.3239119031051813e-02  2.3389626725431018e-02  2.3568836307341565e-02  2.3750258935579568e-02  2.3906611795128534e-02  2.4021082676398714e-02  2.4116482386326365e-02  2.4283637425438195e-02  2.4642353590773942e-02  2.5202433389322008e-02  2.5758792657926292e-02  2.6052541491066242e-02  2.6097964678893640e-02  2.6319326410132751e-02  2.7433838995821844e-02  3.0066555940499010e-02  3.4353178582798682e-02  3.9774483023511741e-02  4.5037285724712335e-02  4.6217580873348846e-02  3.8273536784818374e-02  2.6622291657071046e-02  1.8520134917218545e-02  3.4393961445979990e-02  3.6173019852606972e-02  2.7381504575322776e-02  7.6526582151735717e-02  1.2490992742999743e-01  1.2853097921749829e-01  1.0977727118299088e-01  8.4577585176507777e-02  6.0004728697779841e-02  4.3046595025312308e-02  3.4571515936899590e-02  3.0837090108881221e-02  2.8855557535307559e-02  2.7399067153412112e-02  2.6052490969699575e-02  2.4944619476743743e-02  2.4458029153680415e-02  2.4461786515021993e-02  2.4423102416939322e-02  2.4176230602472728e-02  2.3858350149822970e-02  2.3604845534028900e-02  2.3425480132301345e-02  2.3275463718561915e-02  2.3138852263036840e-02  2.3034068431132957e-02  2.2990084952709461e-02  2.3025264040848679e-02  2.3139481442499509e-02  2.3316990036865510e-02  2.3531132449053641e-02  2.3748410058496729e-02  2.3931500813398870e-02  2.4048518252025173e-02  2.4119224669500488e-02  2.4284782736830046e-02  2.4768521500647851e-02  2.5668942752614950e-02  2.6765403690148237e-02  2.7733667888899166e-02  2.8677065615170437e-02  3.0440964911666993e-02  3.4997145250883148e-02  4.4860072212707817e-02  6.1354184324460603e-02  8.3416156760487331e-02  1.0822557585895856e-01  1.2618964238575658e-01  1.1068449091844086e-01  5.4896792779396027e-02  2.5301165105607846e-02  3.4658347105549429e-02  5.5735291969562201e-02  9.1753862885500581e-02  2.4737937824211384e-01  2.7281962779216995e-01  2.5002902360960805e-01  2.0961150866197245e-01  1.6375975393525097e-01  1.2045268864745601e-01  8.0534603035488275e-02  5.4297892108396154e-02  4.2573664481675717e-02  3.6283602366752092e-02  3.1464065823159297e-02  2.8030745240673578e-02  2.5857504787059275e-02  2.4819826887674562e-02  2.4627659463712048e-02  2.4551770292755296e-02  2.4204586225356820e-02  2.3768805375020428e-02  2.3484027957067249e-02  2.3317085423669524e-02  2.3167177333609311e-02  2.3013026281451555e-02  2.2886199035911152e-02  2.2827740391120906e-02  2.2861969889480867e-02  2.2990631845883572e-02  2.3197321191599174e-02  2.3450945352881610e-02  2.3710940249707029e-02  2.3934135888709757e-02  2.4076790370381705e-02  2.4145449222095251e-02  2.4346987248796349e-02  2.5092145669003734e-02  2.6703069153779378e-02  2.9103792823284742e-02  3.1959586766714711e-02  3.5239202945702555e-02  4.0197275943556154e-02  5.2479053899435531e-02  7.7683720016191060e-02  1.1530405986263759e-01  1.6246272379240181e-01  2.1195409498476847e-01  2.5503183081915087e-01  2.7373425816663316e-01  2.4227711653407430e-01  8.1277690271914615e-02  4.4202466427641481e-02  4.2379130876183202e-01  4.6079583690613224e-01  5.0811258787877223e-01  4.5445511974553499e-01  3.9666233746836732e-01  3.2852588451687742e-01  2.6395728892750236e-01  2.0263456795169169e-01  1.4838131985922232e-01  1.0132010693473976e-01  7.0479834637362640e-02  5.5974885927904949e-02  4.3369117419643562e-02  3.3392421876555993e-02  2.8178345978242973e-02  2.6182307841739659e-02  2.5433985444023890e-02  2.4909999938326370e-02  2.4362324466439125e-02  2.3714526697570612e-02  2.3323163761643340e-02  2.3169713052723133e-02  2.3027162740690943e-02  2.2850155910818307e-02  2.2694411674203073e-02  2.2619330656750192e-02  2.2653893898461713e-02  2.2800650744301230e-02  2.3043179880252188e-02  2.3348493734190168e-02  2.3671040303340229e-02  2.3972669135539481e-02  2.4222967599635593e-02  2.4441661608032246e-02  2.4900653025035538e-02  2.6337306981630712e-02  2.9648190253751882e-02  3.5413749508904503e-02  4.3546862717138049e-02  5.2318362530036640e-02  6.4934818692479912e-02  9.3438163745685698e-02  1.4040511744467180e-01  2.0110004228899436e-01  2.6300696346844721e-01  3.2568449457387938e-01  3.9474092461807697e-01  4.5448852063221856e-01  4.8267580114930680e-01  4.9405303662053651e-01  3.6954273213809274e-01  9.0545987144014262e-01  8.9607588343723998e-01  7.9205185120169852e-01  6.9618600436513167e-01  5.9262272743648359e-01  4.8572158346912686e-01  3.9383541622309010e-01  3.1088823085616923e-01  2.3724846944867545e-01  1.7454941723188236e-01  1.2403184923210780e-01  8.9869311964028809e-02  6.8917180447396531e-02  4.7994088781437683e-02  3.3756334730919109e-02  2.9081200027983319e-02  2.7619443392210161e-02  2.6332200980859893e-02  2.5049581335283847e-02  2.4005654665556007e-02  2.3368385355462276e-02  2.3134589837275215e-02  2.2967815255004020e-02  2.2745859103399345e-02  2.2540650373349076e-02  2.2439311764826383e-02  2.2474066094806226e-02  2.2647792978415120e-02  2.2949775381914062e-02  2.3352235476087464e-02  2.3810875028748145e-02  2.4307127089535141e-02  2.4888638989493131e-02  2.5645981702769053e-02  2.6985090646766886e-02  3.0078990120854562e-02  3.6997172943348360e-02  5.0252333507567040e-02  6.8891315739802381e-02  8.7879561789760835e-02  1.1790780626201554e-01  1.6889729997504060e-01  2.3692524365488213e-01  3.1058267103719728e-01  3.9226674185532334e-01  4.9047791221618231e-01  5.9229252844671898e-01  6.8947641221024414e-01  7.9579137452564042e-01  8.9945328537594671e-01  8.7817925987820200e-01  9.6211502669667170e-01  9.6931546137967861e-01  9.3546291730088060e-01  8.6635122591818003e-01  7.6448671082508535e-01  6.4971034654267501e-01  5.3770946504783490e-01  4.3794762677614296e-01  3.5031507411475876e-01  2.7034196470808047e-01  1.9962970237332001e-01  1.4436632218585180e-01  1.0410725178262546e-01  7.3544349668158204e-02  4.8870072121512530e-02  3.6320098604711387e-02  3.3633806542320829e-02  3.0559070900574713e-02  2.7512721204382248e-02  2.5448925594909914e-02  2.4296866452560167e-02  2.3768655560051425e-02  2.3436448427597768e-02  2.3095101455067678e-02  2.2805766437506932e-02  2.2664352033324720e-02  2.2699053928757533e-02  2.2914332825457986e-02  2.3330196498112341e-02  2.3962874222305555e-02  2.4808400819642595e-02  2.5886174690595284e-02  2.7386979235173262e-02  2.9581438510144189e-02  3.2654518962489429e-02  3.8100792419356280e-02  5.0302085340313746e-02  7.3476870699588956e-02  1.0462917942358718e-01  1.4433393029777147e-01  1.9949657599057485e-01  2.6888544016920546e-01  3.4453802631353603e-01  4.3379418314814117e-01  5.4048726537960678e-01  6.5379964896483656e-01  7.6646262879597638e-01  8.7406574913243407e-01  9.4280022021179555e-01  9.7133978955731193e-01  9.5418881380406628e-01  9.7298606276104971e-01  9.8170116568976384e-01  9.6692594439527524e-01  9.2966885489119921e-01  8.6088229000073024e-01  7.7126000107119674e-01  6.6659366390685459e-01  5.5914640312954389e-01  4.6192133616011277e-01  3.7688627865829250e-01  2.9846893945313485e-01  2.2514479234041457e-01  1.6257069937503515e-01  1.1472510450090956e-01  7.9317473034554387e-02  5.7957335684017064e-02  4.9759111900876549e-02  4.3509578649146431e-02  3.6002409595186857e-02  3.0734611297800661e-02  2.8254863047930505e-02  2.6995505807187230e-02  2.6130295088833973e-02  2.5397898493277237e-02  2.4897362293087977e-02  2.4696803894231012e-02  2.4770175248010645e-02  2.5117825709868310e-02  2.5848659868452393e-02  2.7143888073569156e-02  2.9126407215633126e-02  3.1814751677511265e-02  3.5258209828533921e-02  3.9521749417576725e-02  4.4982951739130222e-02  5.5015993238338473e-02  7.6464802400835391e-02  1.1317143918400496e-01  1.6556499114180151e-01  2.2833161503671745e-01  2.9552788432801336e-01  3.6729469750901300e-01  4.5532164314292956e-01  5.6052437619274109e-01  6.7158988933886665e-01  7.7865357202991037e-01  8.7006789963704412e-01  9.3337342983809424e-01  9.6749184212773864e-01  9.8176128670509033e-01  9.7134838679094970e-01  9.7164404893149092e-01  9.8266978947230454e-01  9.7181252701579945e-01  9.4811559468464468e-01  9.0281362249890840e-01  8.3840842452153486e-01  7.5849927079882995e-01  6.6505686029316902e-01  5.6650706696899678e-01  4.7515195878627348e-01  3.9587323610536962e-01  3.2327240887680597e-01  2.5217495953832814e-01  1.8596791470285823e-01  1.3423178728315385e-01  9.9809711892971845e-02  8.1231084425110150e-02  7.1046597265273043e-02  5.8096537404507952e-02  4.5660767477876812e-02  3.9923598738484917e-02  3.8403918235103307e-02  3.6887036755299599e-02  3.4995288448370403e-02  3.3605942845834978e-02  3.3077651802765375e-02  3.3231630272279232e-02  3.3960322989109476e-02  3.5552261866859343e-02  3.8585853248430869e-02  4.3412158322174106e-02  4.9534247265276700e-02  5.5936743977990644e-02  6.3462510586041729e-02  7.5281602971429940e-02  9.5989181592156997e-02  1.3342582969636169e-01  1.8956522552049940e-01  2.5411035709604596e-01  3.1766015261715336e-01  3.8548481092058462e-01  4.6918165454580429e-01  5.6762889289396268e-01  6.7004152161752517e-01  7.6593267506486917e-01  8.4543197695364281e-01  9.0518728453258013e-01  9.4762640160174016e-01  9.7113466929242265e-01  9.8232433430699084e-01  9.7307317371944435e-01  9.5511558581857681e-01  9.7523789378789216e-01  9.6329232206317317e-01  9.4190292075292736e-01  9.0934682460848393e-01  8.6571499126552820e-01  8.1040942198485422e-01  7.4136240066433656e-01  6.5921258152248408e-01  5.7046970848404510e-01  4.8625430854572121e-01  4.1280914658290158e-01  3.4704295161421428e-01  2.8305712584095222e-01  2.2202049347076702e-01  1.7305281511542264e-01  1.4029140618918712e-01  1.1866876423331293e-01  1.0037550618118639e-01  8.2618872457038486e-02  7.0956691847594802e-02  6.7536072856822296e-02  6.6283345033967642e-02  6.2824339809796195e-02  5.8870834149158204e-02  5.6882318731788215e-02  5.7039435261636649e-02  5.8708702538018277e-02  6.2053021628438482e-02  6.7944651343890702e-02  7.6722765244795571e-02  8.7329888039988021e-02  9.8820798076968586e-02  1.1324413575207083e-01  1.3583253967312947e-01  1.7266856573007733e-01  2.2398357135792379e-01  2.8099769748579823e-01  3.3816290760059486e-01  4.0282143610020932e-01  4.8202527273404416e-01  5.7208608354702839e-01  6.6399404283479369e-01  7.4794996672862668e-01  8.1597159690450938e-01  8.6734399222644210e-01  9.0824641927231053e-01  9.3983498324300330e-01  9.6107552867752410e-01  9.7389729152348425e-01  9.6287519572379621e-01  8.7737972326739522e-01  9.3130331509893849e-01  9.1998281600699372e-01  9.0459722436041767e-01  8.8526537619228940e-01  8.6136650853495766e-01  8.2904421706749165e-01  7.8473339413299270e-01  7.2632897212876257e-01  6.5489175822213541e-01  5.7638324014060072e-01  5.0010910599162728e-01  4.3352258806294341e-01  3.7635147177833395e-01  3.2345983994283362e-01  2.7396567464273669e-01  2.3287594962447228e-01  2.0288134440725880e-01  1.8036543851600298e-01  1.6133733859451468e-01  1.4620660359076720e-01  1.3698183801324199e-01  1.3221276460610415e-01  1.2832352228322630e-01  1.2432597888268977e-01  1.2177384373094727e-01  1.2157884947630430e-01  1.2357628650874683e-01  1.2788814912973243e-01  1.3535019709118146e-01  1.4654812846220597e-01  1.6083267909900917e-01  1.7770431372194304e-01  1.9992830483845159e-01  2.3176195696831026e-01  2.7241843814200539e-01  3.1685260808099985e-01  3.6546683242828298e-01  4.2509098173488397e-01  4.9789659130003078e-01  5.7891548314970187e-01  6.5984334004196787e-01  7.3200058554027725e-01  7.8893698429212544e-01  8.3019205557242903e-01  8.6088627372292592e-01  8.8683452685047182e-01  9.0440885492400036e-01  9.1691859097571649e-01  9.3135075256292255e-01  9.0937982411748697e-01  3.7943427209943953e-01  6.3706678896969926e-01  7.3641037966613210e-01  8.0479644624878199e-01  8.2061165067112596e-01  8.2266648902261819e-01  8.1476775728010420e-01  7.9613217221066124e-01  7.6344698692398949e-01  7.1566119582279131e-01  6.5565734797977615e-01  5.8910402953890850e-01  5.239125920