<?xml version="1.0"?>
<VTKFile type="UnstructuredGrid"  version="0.1"  >
<UnstructuredGrid>
<Piece  NumberOfPoints="2601" NumberOfCells="5000">
<Points>
<DataArray  type="Float64"  NumberOfComponents="3"  format="ascii">0 0 0  0.03 0 0  0.06 0 0  0.09 0 0  0.12 0 0  0.15 0 0  0.18 0 0  0.21 0 0  0.24 0 0  0.27 0 0  0.3 0 0  0.33 0 0  0.36 0 0  0.39 0 0  0.42 0 0  0.45 0 0  0.48 0 0  0.51 0 0  0.54 0 0  0.57 0 0  0.6 0 0  0.63 0 0  0.66 0 0  0.6899999999999999 0 0  0.72 0 0  0.75 0 0  0.78 0 0  0.8100000000000001 0 0  0.84 0 0  0.87 0 0  0.9 0 0  0.93 0 0  0.96 0 0  0.99 0 0  1.02 0 0  1.05 0 0  1.08 0 0  1.11 0 0  1.14 0 0  1.17 0 0  1.2 0 0  1.23 0 0  1.26 0 0  1.29 0 0  1.32 0 0  1.35 0 0  1.38 0 0  1.41 0 0  1.44 0 0  1.47 0 0  1.5 0 0  0 0.02 0  0.03 0.02 0  0.06 0.02 0  0.09 0.02 0  0.12 0.02 0  0.15 0.02 0  0.18 0.02 0  0.21 0.02 0  0.24 0.02 0  0.27 0.02 0  0.3 0.02 0  0.33 0.02 0  0.36 0.02 0  0.39 0.02 0  0.42 0.02 0  0.45 0.02 0  0.48 0.02 0  0.51 0.02 0  0.54 0.02 0  0.57 0.02 0  0.6 0.02 0  0.63 0.02 0  0.66 0.02 0  0.6899999999999999 0.02 0  0.72 0.02 0  0.75 0.02 0  0.78 0.02 0  0.8100000000000001 0.02 0  0.84 0.02 0  0.87 0.02 0  0.9 0.02 0  0.93 0.02 0  0.96 0.02 0  0.99 0.02 0  1.02 0.02 0  1.05 0.02 0  1.08 0.02 0  1.11 0.02 0  1.14 0.02 0  1.17 0.02 0  1.2 0.02 0  1.23 0.02 0  1.26 0.02 0  1.29 0.02 0  1.32 0.02 0  1.35 0.02 0  1.38 0.02 0  1.41 0.02 0  1.44 0.02 0  1.47 0.02 0  1.5 0.02 0  0 0.04 0  0.03 0.04 0  0.06 0.04 0  0.09 0.04 0  0.12 0.04 0  0.15 0.04 0  0.18 0.04 0  0.21 0.04 0  0.24 0.04 0  0.27 0.04 0  0.3 0.04 0  0.33 0.04 0  0.36 0.04 0  0.39 0.04 0  0.42 0.04 0  0.45 0.04 0  0.48 0.04 0  0.51 0.04 0  0.54 0.04 0  0.57 0.04 0  0.6 0.04 0  0.63 0.04 0  0.66 0.04 0  0.6899999999999999 0.04 0  0.72 0.04 0  0.75 0.04 0  0.78 0.04 0  0.8100000000000001 0.04 0  0.84 0.04 0  0.87 0.04 0  0.9 0.04 0  0.93 0.04 0  0.96 0.04 0  0.99 0.04 0  1.02 0.04 0  1.05 0.04 0  1.08 0.04 0  1.11 0.04 0  1.14 0.04 0  1.17 0.04 0  1.2 0.04 0  1.23 0.04 0  1.26 0.04 0  1.29 0.04 0  1.32 0.04 0  1.35 0.04 0  1.38 0.04 0  1.41 0.04 0  1.44 0.04 0  1.47 0.04 0  1.5 0.04 0  0 0.06 0  0.03 0.06 0  0.06 0.06 0  0.09 0.06 0  0.12 0.06 0  0.15 0.06 0  0.18 0.06 0  0.21 0.06 0  0.24 0.06 0  0.27 0.06 0  0.3 0.06 0  0.33 0.06 0  0.36 0.06 0  0.39 0.06 0  0.42 0.06 0  0.45 0.06 0  0.48 0.06 0  0.51 0.06 0  0.54 0.06 0  0.57 0.06 0  0.6 0.06 0  0.63 0.06 0  0.66 0.06 0  0.6899999999999999 0.06 0  0.72 0.06 0  0.75 0.06 0  0.78 0.06 0  0.8100000000000001 0.06 0  0.84 0.06 0  0.87 0.06 0  0.9 0.06 0  0.93 0.06 0  0.96 0.06 0  0.99 0.06 0  1.02 0.06 0  1.05 0.06 0  1.08 0.06 0  1.11 0.06 0  1.14 0.06 0  1.17 0.06 0  1.2 0.06 0  1.23 0.06 0  1.26 0.06 0  1.29 0.06 0  1.32 0.06 0  1.35 0.06 0  1.38 0.06 0  1.41 0.06 0  1.44 0.06 0  1.47 0.06 0  1.5 0.06 0  0 0.08 0  0.03 0.08 0  0.06 0.08 0  0.09 0.08 0  0.12 0.08 0  0.15 0.08 0  0.18 0.08 0  0.21 0.08 0  0.24 0.08 0  0.27 0.08 0  0.3 0.08 0  0.33 0.08 0  0.36 0.08 0  0.39 0.08 0  0.42 0.08 0  0.45 0.08 0  0.48 0.08 0  0.51 0.08 0  0.54 0.08 0  0.57 0.08 0  0.6 0.08 0  0.63 0.08 0  0.66 0.08 0  0.6899999999999999 0.08 0  0.72 0.08 0  0.75 0.08 0  0.78 0.08 0  0.8100000000000001 0.08 0  0.84 0.08 0  0.87 0.08 0  0.9 0.08 0  0.93 0.08 0  0.96 0.08 0  0.99 0.08 0  1.02 0.08 0  1.05 0.08 0  1.08 0.08 0  1.11 0.08 0  1.14 0.08 0  1.17 0.08 0  1.2 0.08 0  1.23 0.08 0  1.26 0.08 0  1.29 0.08 0  1.32 0.08 0  1.35 0.08 0  1.38 0.08 0  1.41 0.08 0  1.44 0.08 0  1.47 0.08 0  1.5 0.08 0  0 0.1 0  0.03 0.1 0  0.06 0.1 0  0.09 0.1 0  0.12 0.1 0  0.15 0.1 0  0.18 0.1 0  0.21 0.1 0  0.24 0.1 0  0.27 0.1 0  0.3 0.1 0  0.33 0.1 0  0.36 0.1 0  0.39 0.1 0  0.42 0.1 0  0.45 0.1 0  0.48 0.1 0  0.51 0.1 0  0.54 0.1 0  0.57 0.1 0  0.6 0.1 0  0.63 0.1 0  0.66 0.1 0  0.6899999999999999 0.1 0  0.72 0.1 0  0.75 0.1 0  0.78 0.1 0  0.8100000000000001 0.1 0  0.84 0.1 0  0.87 0.1 0  0.9 0.1 0  0.93 0.1 0  0.96 0.1 0  0.99 0.1 0  1.02 0.1 0  1.05 0.1 0  1.08 0.1 0  1.11 0.1 0  1.14 0.1 0  1.17 0.1 0  1.2 0.1 0  1.23 0.1 0  1.26 0.1 0  1.29 0.1 0  1.32 0.1 0  1.35 0.1 0  1.38 0.1 0  1.41 0.1 0  1.44 0.1 0  1.47 0.1 0  1.5 0.1 0  0 0.12 0  0.03 0.12 0  0.06 0.12 0  0.09 0.12 0  0.12 0.12 0  0.15 0.12 0  0.18 0.12 0  0.21 0.12 0  0.24 0.12 0  0.27 0.12 0  0.3 0.12 0  0.33 0.12 0  0.36 0.12 0  0.39 0.12 0  0.42 0.12 0  0.45 0.12 0  0.48 0.12 0  0.51 0.12 0  0.54 0.12 0  0.57 0.12 0  0.6 0.12 0  0.63 0.12 0  0.66 0.12 0  0.6899999999999999 0.12 0  0.72 0.12 0  0.75 0.12 0  0.78 0.12 0  0.8100000000000001 0.12 0  0.84 0.12 0  0.87 0.12 0  0.9 0.12 0  0.93 0.12 0  0.96 0.12 0  0.99 0.12 0  1.02 0.12 0  1.05 0.12 0  1.08 0.12 0  1.11 0.12 0  1.14 0.12 0  1.17 0.12 0  1.2 0.12 0  1.23 0.12 0  1.26 0.12 0  1.29 0.12 0  1.32 0.12 0  1.35 0.12 0  1.38 0.12 0  1.41 0.12 0  1.44 0.12 0  1.47 0.12 0  1.5 0.12 0  0 0.14 0  0.03 0.14 0  0.06 0.14 0  0.09 0.14 0  0.12 0.14 0  0.15 0.14 0  0.18 0.14 0  0.21 0.14 0  0.24 0.14 0  0.27 0.14 0  0.3 0.14 0  0.33 0.14 0  0.36 0.14 0  0.39 0.14 0  0.42 0.14 0  0.45 0.14 0  0.48 0.14 0  0.51 0.14 0  0.54 0.14 0  0.57 0.14 0  0.6 0.14 0  0.63 0.14 0  0.66 0.14 0  0.6899999999999999 0.14 0  0.72 0.14 0  0.75 0.14 0  0.78 0.14 0  0.8100000000000001 0.14 0  0.84 0.14 0  0.87 0.14 0  0.9 0.14 0  0.93 0.14 0  0.96 0.14 0  0.99 0.14 0  1.02 0.14 0  1.05 0.14 0  1.08 0.14 0  1.11 0.14 0  1.14 0.14 0  1.17 0.14 0  1.2 0.14 0  1.23 0.14 0  1.26 0.14 0  1.29 0.14 0  1.32 0.14 0  1.35 0.14 0  1.38 0.14 0  1.41 0.14 0  1.44 0.14 0  1.47 0.14 0  1.5 0.14 0  0 0.16 0  0.03 0.16 0  0.06 0.16 0  0.09 0.16 0  0.12 0.16 0  0.15 0.16 0  0.18 0.16 0  0.21 0.16 0  0.24 0.16 0  0.27 0.16 0  0.3 0.16 0  0.33 0.16 0  0.36 0.16 0  0.39 0.16 0  0.42 0.16 0  0.45 0.16 0  0.48 0.16 0  0.51 0.16 0  0.54 0.16 0  0.57 0.16 0  0.6 0.16 0  0.63 0.16 0  0.66 0.16 0  0.6899999999999999 0.16 0  0.72 0.16 0  0.75 0.16 0  0.78 0.16 0  0.8100000000000001 0.16 0  0.84 0.16 0  0.87 0.16 0  0.9 0.16 0  0.93 0.16 0  0.96 0.16 0  0.99 0.16 0  1.02 0.16 0  1.05 0.16 0  1.08 0.16 0  1.11 0.16 0  1.14 0.16 0  1.17 0.16 0  1.2 0.16 0  1.23 0.16 0  1.26 0.16 0  1.29 0.16 0  1.32 0.16 0  1.35 0.16 0  1.38 0.16 0  1.41 0.16 0  1.44 0.16 0  1.47 0.16 0  1.5 0.16 0  0 0.18 0  0.03 0.18 0  0.06 0.18 0  0.09 0.18 0  0.12 0.18 0  0.15 0.18 0  0.18 0.18 0  0.21 0.18 0  0.24 0.18 0  0.27 0.18 0  0.3 0.18 0  0.33 0.18 0  0.36 0.18 0  0.39 0.18 0  0.42 0.18 0  0.45 0.18 0  0.48 0.18 0  0.51 0.18 0  0.54 0.18 0  0.57 0.18 0  0.6 0.18 0  0.63 0.18 0  0.66 0.18 0  0.6899999999999999 0.18 0  0.72 0.18 0  0.75 0.18 0  0.78 0.18 0  0.8100000000000001 0.18 0  0.84 0.18 0  0.87 0.18 0  0.9 0.18 0  0.93 0.18 0  0.96 0.18 0  0.99 0.18 0  1.02 0.18 0  1.05 0.18 0  1.08 0.18 0  1.11 0.18 0  1.14 0.18 0  1.17 0.18 0  1.2 0.18 0  1.23 0.18 0  1.26 0.18 0  1.29 0.18 0  1.32 0.18 0  1.35 0.18 0  1.38 0.18 0  1.41 0.18 0  1.44 0.18 0  1.47 0.18 0  1.5 0.18 0  0 0.2 0  0.03 0.2 0  0.06 0.2 0  0.09 0.2 0  0.12 0.2 0  0.15 0.2 0  0.18 0.2 0  0.21 0.2 0  0.24 0.2 0  0.27 0.2 0  0.3 0.2 0  0.33 0.2 0  0.36 0.2 0  0.39 0.2 0  0.42 0.2 0  0.45 0.2 0  0.48 0.2 0  0.51 0.2 0  0.54 0.2 0  0.57 0.2 0  0.6 0.2 0  0.63 0.2 0  0.66 0.2 0  0.6899999999999999 0.2 0  0.72 0.2 0  0.75 0.2 0  0.78 0.2 0  0.8100000000000001 0.2 0  0.84 0.2 0  0.87 0.2 0  0.9 0.2 0  0.93 0.2 0  0.96 0.2 0  0.99 0.2 0  1.02 0.2 0  1.05 0.2 0  1.08 0.2 0  1.11 0.2 0  1.14 0.2 0  1.17 0.2 0  1.2 0.2 0  1.23 0.2 0  1.26 0.2 0  1.29 0.2 0  1.32 0.2 0  1.35 0.2 0  1.38 0.2 0  1.41 0.2 0  1.44 0.2 0  1.47 0.2 0  1.5 0.2 0  0 0.22 0  0.03 0.22 0  0.06 0.22 0  0.09 0.22 0  0.12 0.22 0  0.15 0.22 0  0.18 0.22 0  0.21 0.22 0  0.24 0.22 0  0.27 0.22 0  0.3 0.22 0  0.33 0.22 0  0.36 0.22 0  0.39 0.22 0  0.42 0.22 0  0.45 0.22 0  0.48 0.22 0  0.51 0.22 0  0.54 0.22 0  0.57 0.22 0  0.6 0.22 0  0.63 0.22 0  0.66 0.22 0  0.6899999999999999 0.22 0  0.72 0.22 0  0.75 0.22 0  0.78 0.22 0  0.8100000000000001 0.22 0  0.84 0.22 0  0.87 0.22 0  0.9 0.22 0  0.93 0.22 0  0.96 0.22 0  0.99 0.22 0  1.02 0.22 0  1.05 0.22 0  1.08 0.22 0  1.11 0.22 0  1.14 0.22 0  1.17 0.22 0  1.2 0.22 0  1.23 0.22 0  1.26 0.22 0  1.29 0.22 0  1.32 0.22 0  1.35 0.22 0  1.38 0.22 0  1.41 0.22 0  1.44 0.22 0  1.47 0.22 0  1.5 0.22 0  0 0.24 0  0.03 0.24 0  0.06 0.24 0  0.09 0.24 0  0.12 0.24 0  0.15 0.24 0  0.18 0.24 0  0.21 0.24 0  0.24 0.24 0  0.27 0.24 0  0.3 0.24 0  0.33 0.24 0  0.36 0.24 0  0.39 0.24 0  0.42 0.24 0  0.45 0.24 0  0.48 0.24 0  0.51 0.24 0  0.54 0.24 0  0.57 0.24 0  0.6 0.24 0  0.63 0.24 0  0.66 0.24 0  0.6899999999999999 0.24 0  0.72 0.24 0  0.75 0.24 0  0.78 0.24 0  0.8100000000000001 0.24 0  0.84 0.24 0  0.87 0.24 0  0.9 0.24 0  0.93 0.24 0  0.96 0.24 0  0.99 0.24 0  1.02 0.24 0  1.05 0.24 0  1.08 0.24 0  1.11 0.24 0  1.14 0.24 0  1.17 0.24 0  1.2 0.24 0  1.23 0.24 0  1.26 0.24 0  1.29 0.24 0  1.32 0.24 0  1.35 0.24 0  1.38 0.24 0  1.41 0.24 0  1.44 0.24 0  1.47 0.24 0  1.5 0.24 0  0 0.26 0  0.03 0.26 0  0.06 0.26 0  0.09 0.26 0  0.12 0.26 0  0.15 0.26 0  0.18 0.26 0  0.21 0.26 0  0.24 0.26 0  0.27 0.26 0  0.3 0.26 0  0.33 0.26 0  0.36 0.26 0  0.39 0.26 0  0.42 0.26 0  0.45 0.26 0  0.48 0.26 0  0.51 0.26 0  0.54 0.26 0  0.57 0.26 0  0.6 0.26 0  0.63 0.26 0  0.66 0.26 0  0.6899999999999999 0.26 0  0.72 0.26 0  0.75 0.26 0  0.78 0.26 0  0.8100000000000001 0.26 0  0.84 0.26 0  0.87 0.26 0  0.9 0.26 0  0.93 0.26 0  0.96 0.26 0  0.99 0.26 0  1.02 0.26 0  1.05 0.26 0  1.08 0.26 0  1.11 0.26 0  1.14 0.26 0  1.17 0.26 0  1.2 0.26 0  1.23 0.26 0  1.26 0.26 0  1.29 0.26 0  1.32 0.26 0  1.35 0.26 0  1.38 0.26 0  1.41 0.26 0  1.44 0.26 0  1.47 0.26 0  1.5 0.26 0  0 0.28 0  0.03 0.28 0  0.06 0.28 0  0.09 0.28 0  0.12 0.28 0  0.15 0.28 0  0.18 0.28 0  0.21 0.28 0  0.24 0.28 0  0.27 0.28 0  0.3 0.28 0  0.33 0.28 0  0.36 0.28 0  0.39 0.28 0  0.42 0.28 0  0.45 0.28 0  0.48 0.28 0  0.51 0.28 0  0.54 0.28 0  0.57 0.28 0  0.6 0.28 0  0.63 0.28 0  0.66 0.28 0  0.6899999999999999 0.28 0  0.72 0.28 0  0.75 0.28 0  0.78 0.28 0  0.8100000000000001 0.28 0  0.84 0.28 0  0.87 0.28 0  0.9 0.28 0  0.93 0.28 0  0.96 0.28 0  0.99 0.28 0  1.02 0.28
[...]
<PointData  Scalars="ControlVisualisation"> 
<DataArray  type="Float64"  Name="ControlVisualisation"  format="ascii">1.9137095948445532e-05  1.2768427697405534e-05  1.2816103719466718e-05  1.2914090171283440e-05  1.3065009088112527e-05  1.3252776590275040e-05  1.3451455143050363e-05  1.3636430353100093e-05  1.3791032006973415e-05  1.3907814193715262e-05  1.3986279373826908e-05  1.4030021416859883e-05  1.4044762240838165e-05  1.4037089206682464e-05  1.4013524352495259e-05  1.3979896001097716e-05  1.3941038379188818e-05  1.3900737086804443e-05  1.3861804203646468e-05  1.3826210535999287e-05  1.3795245922488010e-05  1.3769691177003930e-05  1.3749981491801898e-05  1.3736340870222108e-05  1.3728876369339704e-05  1.3727633494313075e-05  1.3732621844496294e-05  1.3743819488378979e-05  1.3761157479861233e-05  1.3784477750696284e-05  1.3813454198162411e-05  1.3847471747725835e-05  1.3885470039852523e-05  1.3925769298783591e-05  1.3965899730957180e-05  1.4002454567493073e-05  1.4030998492978193e-05  1.4046090540495278e-05  1.4041502937861889e-05  1.4010695671030210e-05  1.3947485912776665e-05  1.3847071291494407e-05  1.3707864301762749e-05  1.3534184965073466e-05  1.3338976239737407e-05  1.3143618572536889e-05  1.2973900421715048e-05  1.2852001268158657e-05  1.2784413360212145e-05  1.2757870473130104e-05  3.8275868578961713e-05  1.2761033893822164e-05  6.3871490671230938e-06  6.4332927214252343e-06  6.5358871273193754e-06  6.7047292586802492e-06  6.9292148913369332e-06  7.1832053198033079e-06  7.4353692384279232e-06  7.6588144489003538e-06  7.8366818948913917e-06  7.9623675201511591e-06  8.0369856772941617e-06  8.0667579431708525e-06  8.0607797128038665e-06  8.0290133642252662e-06  7.9807601241758742e-06  7.9238305704405986e-06  7.8643019252068898e-06  7.8066076264353591e-06  7.7537716161110398e-06  7.7076983506950202e-06  7.6694753490707411e-06  7.6396529174499143e-06  7.6184703322043411e-06  7.6060130944050477e-06  7.6023054523859886e-06  7.6073547097292608e-06  7.6211635050246445e-06  7.6437154873780691e-06  7.6749256783316110e-06  7.7145377443391403e-06  7.7619530178935974e-06  7.8159908569463756e-06  7.8745994402290805e-06  7.9345481482605640e-06  7.9911357749009271e-06  8.0379767616247205e-06  8.0669851891979715e-06  8.0687748963995439e-06  8.0335905123896419e-06  7.9527031039425681e-06  7.8201877469275082e-06  7.6355733222906829e-06  7.4067585669655564e-06  7.1524842178392016e-06  6.9006144263274732e-06  6.6813715406199618e-06  6.5197309530365261e-06  6.4250655306552975e-06  6.3844549813710941e-06  1.2756352771353775e-05  1.2775376276902218e-05  6.4016978859539386e-06  6.4615265987261216e-06  6.5921303698760060e-06  6.8026732555396779e-06  7.0784554623180055e-06  7.3889765992382681e-06  7.6969315549707479e-06  7.9695870992737862e-06  8.1864579499728810e-06  8.3390694818496978e-06  8.4279255440706999e-06  8.4601963796658708e-06  8.4473274175489132e-06  8.4022154785988923e-06  8.3369126310074847e-06  8.2614479805770245e-06  8.1835378467441701e-06  8.1087340193196531e-06  8.0407404795622316e-06  7.9818008698868588e-06  7.9331111523595571e-06  7.8952051493473997e-06  7.8682617428046610e-06  7.8523091340500796e-06  7.8473359713980390e-06  7.8533394503015967e-06  7.8703387620144483e-06  7.8983636258437500e-06  7.9374034467506580e-06  7.9872861566538230e-06  8.0474584570478845e-06  8.1166632519549224e-06  8.1925473292805059e-06  8.2712444406438966e-06  8.3469733096613722e-06  8.4117221893753501e-06  8.4551675301419480e-06  8.4652217817189031e-06  8.4292912622160923e-06  8.3365417145221095e-06  8.1796984074384468e-06  7.9581607770346833e-06  7.6808128133507538e-06  7.3701215610012830e-06  7.0608119950976568e-06  6.7875429151639116e-06  6.5794859932060236e-06  6.4533676372342081e-06  6.3983755814501801e-06  1.2766696056077992e-05  1.2789372804055171e-05  6.4226402753241661e-06  6.5062568729607371e-06  6.6698500928706407e-06  6.9097471320723971e-06  7.2048202126836709e-06  7.5254920356420656e-06  7.8329267321121793e-06  8.0959681497285191e-06  8.2994409331330179e-06  8.4381670170335663e-06  8.5131970365473475e-06  8.5318305801379433e-06  8.5061324393863328e-06  8.4496293988176643e-06  8.3746266152815740e-06  8.2911238887446313e-06  8.2067237506678403e-06  8.1268512120003368e-06  8.0550507777059552e-06  7.9933567696531435e-06  7.9427307656044985e-06  7.9034952728242380e-06  7.8756769090933479e-06  7.8592167973806040e-06  7.8540650738829291e-06  7.8602088825899588e-06  7.8776788780554127e-06  7.9065494857564956e-06  7.9469102327866335e-06  7.9987586112012892e-06  8.0617680357973441e-06  8.1349243320342231e-06  8.2160911115744235e-06  8.3015736516749113e-06  8.3857376075209318e-06  8.4606573450640170e-06  8.5158953727932140e-06  8.5389476310604241e-06  8.5167514408897585e-06  8.4390870230743020e-06  8.2977637723147268e-06  8.0899445392771264e-06  7.8210268349348566e-06  7.5081828348593519e-06  7.1883412352435593e-06  6.8947067116605143e-06  6.6531828081368598e-06  6.4911764587387378e-06  6.4150180270872248e-06  1.2781257621018673e-05  1.2786855939616445e-05  6.4485720358501897e-06  6.5962303468595642e-06  6.8312217558152363e-06  7.1091429688524678e-06  7.4161518979140109e-06  7.7389754320671779e-06  8.0298993153497832e-06  8.2642501233875314e-06  8.4389847890692947e-06  8.5523445412313492e-06  8.6040166176431485e-06  8.6007482473123246e-06  8.5555924326400600e-06  8.4828739333519243e-06  8.3948559053061629e-06  8.3011029923386436e-06  8.2088137050841698e-06  8.1231070904646868e-06  8.0472217630730567e-06  7.9828236549929332e-06  7.9304780807887298e-06  7.8901659045548331e-06  7.8616839213326460e-06  7.8448559551389986e-06  7.8395888380616206e-06  7.8458594438032448e-06  7.8637069403287902e-06  7.8932552472468536e-06  7.9347291525746961e-06  7.9883809464736851e-06  8.0542457906669751e-06  8.1317097245055844e-06  8.2189946536646672e-06  8.3127324670580228e-06  8.4076646081672326e-06  8.4961707305736450e-06  8.5679829839671623e-06  8.6102241395878855e-06  8.6098629862248158e-06  8.5567166646428142e-06  8.4428897967596428e-06  8.2641068327732195e-06  8.0266971323173400e-06  7.7244427035240022e-06  7.4029977512027866e-06  7.1026047905827614e-06  6.8158022148094160e-06  6.5721654439558517e-06  6.4290804049779754e-06  1.2786700759640327e-05  1.2790211309499144e-05  6.5186399651433152e-06  6.9624862246023970e-06  7.5788322376769971e-06  7.8725969421570788e-06  7.9976264581366827e-06  8.1621163911568163e-06  8.3415324801614569e-06  8.5013653222249641e-06  8.6272398262110709e-06  8.7052587941278229e-06  8.7247243075335180e-06  8.6906510232791223e-06  8.6184948193678864e-06  8.5239411598941252e-06  8.4187622696608814e-06  8.3115939473244478e-06  8.2090168327388471e-06  8.1157848834978552e-06  8.0347597257761533e-06  7.9670861914109828e-06  7.9127391421371918e-06  7.8711989978438699e-06  7.8419510100853602e-06  7.8246862457195416e-06  7.8192806103274845e-06  7.8257066639659424e-06  7.8439997215373136e-06  7.8743197861449787e-06  7.9170507566994523e-06  7.9727961424638792e-06  8.0421231839907401e-06  8.1250110649699370e-06  8.2201624985035355e-06  8.3246522476119680e-06  8.4336460773059722e-06  8.5401292734125664e-06  8.6348341785284655e-06  8.7036591639272321e-06  8.7327592126757124e-06  8.7083161591149491e-06  8.6494664314741545e-06  8.5348160438367270e-06  8.4149057197552186e-06  8.2627334496511517e-06  8.1453020698956361e-06  7.9799071220948802e-06  7.3991311898015663e-06  6.7791195707810420e-06  6.4510737367660129e-06  1.2775750633653359e-05  1.3254770338877711e-05  7.0525928430860209e-06  9.6598647070068496e-06  1.6982411799230916e-05  2.2094456567639461e-05  1.5523139657920296e-05  1.1131836170126584e-05  9.3621311834550149e-06  8.9049806935319939e-06  8.8834089316828947e-06  8.9048999637064780e-06  8.8805916289626680e-06  8.8039364150790165e-06  8.6956775133715693e-06  8.5734043781380210e-06  8.4469490750620416e-06  8.3231542302035797e-06  8.2077931751081601e-06  8.1053113437827875e-06  8.0181803912595625e-06  7.9468275272315418e-06  7.8903560661906895e-06  7.8475306490706607e-06  7.8174416683964020e-06  7.7996648982756664e-06  7.7940913835001800e-06  7.8007072869389658e-06  7.8195142254631403e-06  7.8506577854810755e-06  7.8946755146811668e-06  7.9526312792073845e-06  8.0258615964865549e-06  8.1152285683367965e-06  8.2200267926222006e-06  8.3377775637033017e-06  8.4640532887475811e-06  8.5937515167679604e-06  8.7184012322150147e-06  8.8210004690514257e-06  8.8910613927872604e-06  8.9138505466770490e-06  8.9917647394650458e-06  9.1309802622760286e-06  9.8312271063628188e-06  1.1339454039416507e-05  1.4776651040589671e-05  2.1748743830161743e-05  1.7893899873754599e-05  1.0251669659755669e-05  6.9284029498258148e-06  1.2829379538294402e-05  1.4412166513377697e-05  1.5758157503254607e-05  2.9635178417279095e-02  5.7032479357020084e-02  5.2952318450398328e-02  3.3281643761867749e-02  1.0353962765885067e-02  3.1012849921774988e-05  1.1743840987553806e-05  9.5126390746755980e-06  9.1947792300332620e-06  9.0831441590416809e-06  8.9419052458283467e-06  8.7859195264305214e-06  8.6302966074996396e-06  8.4787648500561661e-06  8.3351144012507854e-06  8.2043280926604919e-06  8.0908348440342069e-06  7.9968210659732789e-06  7.9217026792420693e-06  7.8632652460684895e-06  7.8192504590113466e-06  7.7882810483164916e-06  7.7699008481676918e-06  7.7641207635354484e-06  7.7709789356538342e-06  7.7903849167960737e-06  7.8223509162966285e-06  7.8675054848315107e-06  7.9274933626035247e-06  8.0047532176731574e-06  8.1015078516316562e-06  8.2177733312538984e-06  8.3512857820377136e-06  8.4984521701295342e-06  8.6564092849319667e-06  8.8158430300184009e-06  8.9745023032518955e-06  9.1181971689236658e-06  9.2732569686032251e-06  1.0091549508775311e-05  1.2221404485718461e-05  2.4270706249479214e-05  7.6005276052748417e-03  2.9046846407453978e-02  4.9905742694293466e-02  5.7433741739858719e-02  4.1194131216004307e-02  1.6270233778318649e-05  1.4355908441882453e-05  3.1670842917453122e-05  8.9900625729512545e-02  2.0996673886469697e-01  2.1430248871072113e-01  1.8045138437776534e-01  1.3271351539082391e-01  8.2211188354935516e-02  3.7652994417303715e-02  5.7945250080063447e-03  1.6386130997177588e-05  1.0311981306790960e-05  9.4091550307067602e-06  9.1109680313289252e-06  8.8868489178772590e-06  8.6937244215761703e-06  8.5136974862977930e-06  8.3468248162329862e-06  8.1975996779201629e-06  8.0711516686124916e-06  7.9697487642419791e-06  7.8912728510585207e-06  7.8314347896011172e-06  7.7865053440364138e-06  7.7546099300305479e-06  7.7354713684875854e-06  7.7294192392927313e-06  7.7366150134953075e-06  7.7567769931421100e-06  7.7895427751935457e-06  7.8354646595385821e-06  7.8968657936223427e-06  7.9777741246265484e-06  8.0826775105534154e-06  8.2127379343353741e-06  8.3643788144507938e-06  8.5363170558549803e-06  8.7238219693849661e-06  8.9385187816048056e-06  9.2095806017563692e-06  9.6042903014577603e-06  1.0807009336480531e-05  1.6354383846760346e-05  2.7925286284603648e-03  3.0974031888717349e-02  7.6029540037255844e-02  1.2839476220185955e-01  1.7554855906099279e-01  2.0848877913362462e-01  2.0800171521475158e-01  1.1429288571143530e-01  2.3323272367284356e-05  4.0142192559226475e-01  4.6417681737177052e-01  4.9575579906991890e-01  4.2305401918474950e-01  3.5492382980482512e-01  2.7490802022616140e-01  1.9385245179135385e-01  1.1976232794897432e-01  5.9897182510698324e-02  1.6954194160129471e-02  2.9280311673530498e-05  1.1340083039321848e-05  9.4253287456973501e-06  9.0103259341793027e-06  8.7662676787523297e-06  8.5521034765743639e-06  8.3580883458484170e-06  8.1865202952382381e-06  8.0446094717984431e-06  7.9357419478301557e-06  7.8551098708744073e-06  7.7950216400745038e-06  7.7496343702282782e-06  7.7166608506080454e-06  7.6964545898353899e-06  7.6900069832939506e-06  7.6977212855716744e-06  7.7189817140338327e-06  7.7525929383879908e-06  7.7986623618349396e-06  7.8602194543967267e-06  7.9436911066524275e-06  8.0571351671376646e-06  8.2046398116164222e-06  8.3757304570445285e-06  8.5809050227786521e-06  8.8045130536113977e-06  9.1405212971528569e-06  9.8925657784720897e-06  1.1813942023698695e-05  2.3751798525624022e-05  1.1694847922235541e-02  5.3556575482223583e-02  1.1633823843948034e-01  1.8980092126577305e-01  2.7062000261798674e-01  3.5080051299140802e-01  4.1779496883421774e-01  4.4809180872921739e-01  4.6916875290999205e-01  3.5708534962414845e-01  9.9992176470871008e-01  9.9037552573112830e-01  7.8666927745759341e-01  6.6346865068538341e-01  5.5678791863868504e-01  4.4320799068813022e-01  3.3548326684181429e-01  2.3497289955423800e-01  1.4694718813912916e-01  7.6760231907215162e-02  2.7414434013045094e-02  1.9937332694432402e-04  1.2627888911045435e-05  9.4658654057574330e-06  8.8940624725958626e-06  8.6012088073077036e-06  8.3717563124769100e-06  8.1707562903836697e-06  8.0090678032174328e-06  7.8934528653561980e-06  7.8130793182320577e-06  7.7546726756735510e-06  7.7094056194564224e-06  7.6748759203061117e-06  7.6529922713620234e-06  7.6459505697130297e-06  7.6544895601497296e-06  7.6775753712660866e-06  7.7123391218346923e-06  7.7576813559259261e-06  7.8173878975244357e-06  7.9013292730211545e-06  8.0224466123552581e-06  8.1972258415958395e-06  8.3933818020677337e-06  8.6555718937688842e-06  8.9956023404798445e-06  1.0117639440091366e-05  1.3266569948908705e-05  5.0728842947440907e-05  2.1626284416413462e-02  7.1676384881350239e-02  1.4392024320840732e-01  2.3111912233097981e-01  3.3168728331473674e-01  4.4151108806687162e-01  5.4410348086342897e-01  6.5586482284858771e-01  8.0508395287267820e-01  9.9935838536909327e-01  9.9976611109433866e-01  9.9998426122312900e-01  9.9998625672920161e-01  9.9995107687716067e-01  9.0651155237696113e-01  7.4453392257606188e-01  6.1536353610569272e-01  4.8875503023464006e-01  3.6904308374005190e-01  2.5996307392682827e-01  1.6602985975836371e-01  9.1311964950643254e-02  3.8456992633186804e-02  5.4877494169892982e-03  1.6208745218218560e-05  9.9777954994268558e-06  8.8072824552498518e-06  8.4330442578741790e-06  8.1648808957702513e-06  7.9686380419055888e-06  7.8461316602565961e-06  7.7685248320720797e-06  7.7139873787926330e-06  7.6690231773635511e-06  7.6315143401054408e-06  7.6067894631155778e-06  7.5988467523654339e-06  7.6085977227495169e-06  7.6352750100103721e-06  7.6726285642257071e-06  7.7169662012709316e-06  7.7735743258769175e-06  7.8565564298411754e-06  7.9872554889391343e-06  8.2199111117536552e-06  8.4933049444179394e-06  9.0951522285893703e-06  1.0533168797836739e-05  1.6024029493882201e-05  2.2911936514955229e-03  3.2626482509852610e-02  8.7518699811383299e-02  1.6321926928811548e-01  2.5704358832472951e-01  3.6646927115262112e-01  4.8818832217291885e-01  6.0980088234665142e-01  7.4120186512736763e-01  9.3988655155302592e-01  9.9996766274341520e-01  9.9998775018182362e-01  9.9997841480535388e-01  9.9998959809187915e-01  9.9999307981713259e-01  9.9998613751624910e-01  9.9994667110307045e-01  9.1121572079697022e-01  7.6777209280169179e-01  6.3643249288629489e-01  5.0833405156708855e-01  3.8682598415802749e-01  2.7656779797164871e-01  1.8225724378712491e-01  1.0676253652005953e-01  5.1959978064341106e-02  1.6076908878215456e-02  4.1186297179900990e-05  1.2739262554526619e-05  9.5057682326760954e-06  8.4959184896316662e-06  8.0856536402826395e-06  7.8925673603063310e-06  7.7865842156590172e-06  7.7201863343429247e-06  7.6660551101557111e-06  7.6187669766506817e-06  7.5880894589098522e-06  7.5787524445478330e-06  7.5909692177048427e-06  7.6267429932018265e-06  7.6753820099027047e-06  7.7319093610018872e-06  7.8101639414518952e-06  7.9381482650110651e-06  8.1778634988478254e-06  8.8080316912301398e-06  9.9400568812950721e-06  1.2603011188639239e-05  3.1679216354872487e-05  1.1394143724353064e-02  4.7102387986214363e-02  1.0438390028876392e-01  1.7950555639914234e-01  2.7426192605958244e-01  3.8526235195599440e-01  5.0827856456171006e-01  6.3628298667876793e-01  7.6475239587774047e-01  9.3910346183455018e-01  9.9995844573021064e-01  9.9998654549413790e-01  9.9999306844112457e-01  9.9998877589201440e-01  9.9998898977978012e-01  9.9999360207949439e-01  9.9998940164554606e-01  9.9997585148269186e-01  9.9984309765448776e-01  8.8373073971770022e-01  7.6334976739247096e-01  6.3873423540351926e-01  5.1550968784880913e-01  3.9807857271998692e-01  2.9176598629597211e-01  2.0092428349255514e-01  1.2782212508116284e-01  7.3273238583387676e-02  3.5885988539547414e-02  1.1713834671861689e-02  6.1769395653687680e-05  1.6572803808434574e-05  1.1662769542956211e-05  1.0119645604356600e-05  9.3775265876242120e-06  8.9685932698290166e-06  8.7027969656296655e-06  8.5287251847034626e-06  8.4449140912973524e-06  8.4262307817488886e-06  8.4646358582658553e-06  8.5815199684676574e-06  8.7574100111100205e-06  9.0029767023202356e-06  9.4133560954426476e-06  1.0137985043129060e-05  1.1606151157481020e-05  1.5993904878423331e-05  4.8889415677519958e-05  8.9846441698508833e-03  3.1116523668029542e-02  7.0286316510328892e-02  1.2601869927923254e-01  1.9873222396402976e-01  2.8996187180427763e-01  3.9742631368506198e-01  5.1578316292004167e-01  6.4063777048820092e-01  7.6262411581966605e-01  8.9720379988855581e-01  9.9988885889278178e-01  9.9997569767323280e-01  9.9998902478754670e-01  9.9999344086880748e-01  9.9998965137221651e-01  9.9997991983582968e-01  9.9999041291235313e-01  9.9998605537564389e-01  9.9997491744336497e-01  9.9992578362548312e-01  9.6144826683467877e-01  8.5606813232261270e-01  7.4876025180930372e-01  6.3465129070939974e-01  5.1994658816618722e-01  4.1079887433948420e-01  3.1243355163367420e-01  2.2864137797306885e-01  1.6114891273041371e-01  1.0951745226979862e-01  7.2302862002715573e-02  4.6648646385032730e-02  2.8594431961219899e-02  1.6446476729559539e-02  9.2840899963749241e-03  4.8109378845873404e-03  1.7419441325029557e-03  3.7043662944562385e-04  1.1720722053382688e-04  7.9650380457053040e-05  7.2235415387315367e-05  7.8184157852844317e-05  1.1075792669310384e-04  3.1342740840352960e-04  1.5039440700051927e-03  4.3368323074922110e-03  8.5996810922813090e-03  1.5080714731792332e-02  2.5567251248518150e-02  4.2893443619488429e-02  7.0378077410712656e-02  1.0843956540971125e-01  1.5978173105879920e-01  2.2715727784894532e-01  3.1151096747972795e-01  4.1078257360898790e-01  5.2084722140053807e-01  6.3649027785610035e-01  7.5183427210084020e-01  8.5956612562427936e-01  9.7068804737707903e-01  9.9992267570075011e-01  9.9997230615867239e-01  9.9998485241733037e-01  9.9998978917578518e-01  9.9998487694867877e-01  9.9978461404141983e-01  9.9995686227540093e-01  9.9995442505575260e-01  9.9993727990901415e-01  9.9986312445933134e-01  9.8180760991442850e-01  9.0874939637138485e-01  8.2999026087042815e-01  7.3454302191238185e-01  6.3232953054471785e-01  5.2961220247830665e-01  4.3269897137899888e-01  3.4640395653680517e-01  2.7361979133127362e-01  2.1525142283113269e-01  1.7034497683295680e-01  1.3678549606770748e-01  1.1258015695691680e-01  9.5841065839077019e-02  8.4156790930212499e-02  7.5826012322756514e-02  7.0153218757795260e-02  6.6351404439067133e-02  6.3846169299030281e-02  6.2330343243747539e-02  6.1799733513914691e-02  6.2118562809208751e-02  6.3366351674741361e-02  6.5813433972381680e-02  6.9635063533533562e-02  7.5219249235148528e-02  8.3435157545039926e-02  9.5313421777550908e-02  1.1247454809593216e-01  1.3666603914444161e-01  1.6971429748977174e-01  2.1432028326265645e-01  2.7304501986991159e-01  3.4642213674757288e-01  4.3338780702068436e-01  5.3099126931697938e-01  6.3457156984682972e-01  7.3786164803452381e-01  8.3388271421797655e-01  9.1666611006266574e-01  9.8182773587817596e-01  9.9982894476552397e-01  9.9992865922422269e-01  9.9995436117617409e-01  9.9996271340009479e-01  9.9993977317112481e-01  3.3926807001815201e-01  6.4690604788909478e-01  8.0594144048722494e-01  9.0155039276693150e-01  9.4184437071426419e-01  9.4478399391854095e-01  9.2252127275543372e-01  8.7661943867933734e-01  8.0811953873986841e-01  7.2679570362462531e-01  6.3917611179680367e-01  5.5247952976396442e-01  4.723819452