<?xml version="1.0"?>
<VTKFile type="UnstructuredGrid"  version="0.1"  >
<UnstructuredGrid>
<Piece  NumberOfPoints="2601" NumberOfCells="5000">
<Points>
<DataArray  type="Float64"  NumberOfComponents="3"  format="ascii">0 0 0  0.03 0 0  0.06 0 0  0.09 0 0  0.12 0 0  0.15 0 0  0.18 0 0  0.21 0 0  0.24 0 0  0.27 0 0  0.3 0 0  0.33 0 0  0.36 0 0  0.39 0 0  0.42 0 0  0.45 0 0  0.48 0 0  0.51 0 0  0.54 0 0  0.57 0 0  0.6 0 0  0.63 0 0  0.66 0 0  0.6899999999999999 0 0  0.72 0 0  0.75 0 0  0.78 0 0  0.8100000000000001 0 0  0.84 0 0  0.87 0 0  0.9 0 0  0.93 0 0  0.96 0 0  0.99 0 0  1.02 0 0  1.05 0 0  1.08 0 0  1.11 0 0  1.14 0 0  1.17 0 0  1.2 0 0  1.23 0 0  1.26 0 0  1.29 0 0  1.32 0 0  1.35 0 0  1.38 0 0  1.41 0 0  1.44 0 0  1.47 0 0  1.5 0 0  0 0.02 0  0.03 0.02 0  0.06 0.02 0  0.09 0.02 0  0.12 0.02 0  0.15 0.02 0  0.18 0.02 0  0.21 0.02 0  0.24 0.02 0  0.27 0.02 0  0.3 0.02 0  0.33 0.02 0  0.36 0.02 0  0.39 0.02 0  0.42 0.02 0  0.45 0.02 0  0.48 0.02 0  0.51 0.02 0  0.54 0.02 0  0.57 0.02 0  0.6 0.02 0  0.63 0.02 0  0.66 0.02 0  0.6899999999999999 0.02 0  0.72 0.02 0  0.75 0.02 0  0.78 0.02 0  0.8100000000000001 0.02 0  0.84 0.02 0  0.87 0.02 0  0.9 0.02 0  0.93 0.02 0  0.96 0.02 0  0.99 0.02 0  1.02 0.02 0  1.05 0.02 0  1.08 0.02 0  1.11 0.02 0  1.14 0.02 0  1.17 0.02 0  1.2 0.02 0  1.23 0.02 0  1.26 0.02 0  1.29 0.02 0  1.32 0.02 0  1.35 0.02 0  1.38 0.02 0  1.41 0.02 0  1.44 0.02 0  1.47 0.02 0  1.5 0.02 0  0 0.04 0  0.03 0.04 0  0.06 0.04 0  0.09 0.04 0  0.12 0.04 0  0.15 0.04 0  0.18 0.04 0  0.21 0.04 0  0.24 0.04 0  0.27 0.04 0  0.3 0.04 0  0.33 0.04 0  0.36 0.04 0  0.39 0.04 0  0.42 0.04 0  0.45 0.04 0  0.48 0.04 0  0.51 0.04 0  0.54 0.04 0  0.57 0.04 0  0.6 0.04 0  0.63 0.04 0  0.66 0.04 0  0.6899999999999999 0.04 0  0.72 0.04 0  0.75 0.04 0  0.78 0.04 0  0.8100000000000001 0.04 0  0.84 0.04 0  0.87 0.04 0  0.9 0.04 0  0.93 0.04 0  0.96 0.04 0  0.99 0.04 0  1.02 0.04 0  1.05 0.04 0  1.08 0.04 0  1.11 0.04 0  1.14 0.04 0  1.17 0.04 0  1.2 0.04 0  1.23 0.04 0  1.26 0.04 0  1.29 0.04 0  1.32 0.04 0  1.35 0.04 0  1.38 0.04 0  1.41 0.04 0  1.44 0.04 0  1.47 0.04 0  1.5 0.04 0  0 0.06 0  0.03 0.06 0  0.06 0.06 0  0.09 0.06 0  0.12 0.06 0  0.15 0.06 0  0.18 0.06 0  0.21 0.06 0  0.24 0.06 0  0.27 0.06 0  0.3 0.06 0  0.33 0.06 0  0.36 0.06 0  0.39 0.06 0  0.42 0.06 0  0.45 0.06 0  0.48 0.06 0  0.51 0.06 0  0.54 0.06 0  0.57 0.06 0  0.6 0.06 0  0.63 0.06 0  0.66 0.06 0  0.6899999999999999 0.06 0  0.72 0.06 0  0.75 0.06 0  0.78 0.06 0  0.8100000000000001 0.06 0  0.84 0.06 0  0.87 0.06 0  0.9 0.06 0  0.93 0.06 0  0.96 0.06 0  0.99 0.06 0  1.02 0.06 0  1.05 0.06 0  1.08 0.06 0  1.11 0.06 0  1.14 0.06 0  1.17 0.06 0  1.2 0.06 0  1.23 0.06 0  1.26 0.06 0  1.29 0.06 0  1.32 0.06 0  1.35 0.06 0  1.38 0.06 0  1.41 0.06 0  1.44 0.06 0  1.47 0.06 0  1.5 0.06 0  0 0.08 0  0.03 0.08 0  0.06 0.08 0  0.09 0.08 0  0.12 0.08 0  0.15 0.08 0  0.18 0.08 0  0.21 0.08 0  0.24 0.08 0  0.27 0.08 0  0.3 0.08 0  0.33 0.08 0  0.36 0.08 0  0.39 0.08 0  0.42 0.08 0  0.45 0.08 0  0.48 0.08 0  0.51 0.08 0  0.54 0.08 0  0.57 0.08 0  0.6 0.08 0  0.63 0.08 0  0.66 0.08 0  0.6899999999999999 0.08 0  0.72 0.08 0  0.75 0.08 0  0.78 0.08 0  0.8100000000000001 0.08 0  0.84 0.08 0  0.87 0.08 0  0.9 0.08 0  0.93 0.08 0  0.96 0.08 0  0.99 0.08 0  1.02 0.08 0  1.05 0.08 0  1.08 0.08 0  1.11 0.08 0  1.14 0.08 0  1.17 0.08 0  1.2 0.08 0  1.23 0.08 0  1.26 0.08 0  1.29 0.08 0  1.32 0.08 0  1.35 0.08 0  1.38 0.08 0  1.41 0.08 0  1.44 0.08 0  1.47 0.08 0  1.5 0.08 0  0 0.1 0  0.03 0.1 0  0.06 0.1 0  0.09 0.1 0  0.12 0.1 0  0.15 0.1 0  0.18 0.1 0  0.21 0.1 0  0.24 0.1 0  0.27 0.1 0  0.3 0.1 0  0.33 0.1 0  0.36 0.1 0  0.39 0.1 0  0.42 0.1 0  0.45 0.1 0  0.48 0.1 0  0.51 0.1 0  0.54 0.1 0  0.57 0.1 0  0.6 0.1 0  0.63 0.1 0  0.66 0.1 0  0.6899999999999999 0.1 0  0.72 0.1 0  0.75 0.1 0  0.78 0.1 0  0.8100000000000001 0.1 0  0.84 0.1 0  0.87 0.1 0  0.9 0.1 0  0.93 0.1 0  0.96 0.1 0  0.99 0.1 0  1.02 0.1 0  1.05 0.1 0  1.08 0.1 0  1.11 0.1 0  1.14 0.1 0  1.17 0.1 0  1.2 0.1 0  1.23 0.1 0  1.26 0.1 0  1.29 0.1 0  1.32 0.1 0  1.35 0.1 0  1.38 0.1 0  1.41 0.1 0  1.44 0.1 0  1.47 0.1 0  1.5 0.1 0  0 0.12 0  0.03 0.12 0  0.06 0.12 0  0.09 0.12 0  0.12 0.12 0  0.15 0.12 0  0.18 0.12 0  0.21 0.12 0  0.24 0.12 0  0.27 0.12 0  0.3 0.12 0  0.33 0.12 0  0.36 0.12 0  0.39 0.12 0  0.42 0.12 0  0.45 0.12 0  0.48 0.12 0  0.51 0.12 0  0.54 0.12 0  0.57 0.12 0  0.6 0.12 0  0.63 0.12 0  0.66 0.12 0  0.6899999999999999 0.12 0  0.72 0.12 0  0.75 0.12 0  0.78 0.12 0  0.8100000000000001 0.12 0  0.84 0.12 0  0.87 0.12 0  0.9 0.12 0  0.93 0.12 0  0.96 0.12 0  0.99 0.12 0  1.02 0.12 0  1.05 0.12 0  1.08 0.12 0  1.11 0.12 0  1.14 0.12 0  1.17 0.12 0  1.2 0.12 0  1.23 0.12 0  1.26 0.12 0  1.29 0.12 0  1.32 0.12 0  1.35 0.12 0  1.38 0.12 0  1.41 0.12 0  1.44 0.12 0  1.47 0.12 0  1.5 0.12 0  0 0.14 0  0.03 0.14 0  0.06 0.14 0  0.09 0.14 0  0.12 0.14 0  0.15 0.14 0  0.18 0.14 0  0.21 0.14 0  0.24 0.14 0  0.27 0.14 0  0.3 0.14 0  0.33 0.14 0  0.36 0.14 0  0.39 0.14 0  0.42 0.14 0  0.45 0.14 0  0.48 0.14 0  0.51 0.14 0  0.54 0.14 0  0.57 0.14 0  0.6 0.14 0  0.63 0.14 0  0.66 0.14 0  0.6899999999999999 0.14 0  0.72 0.14 0  0.75 0.14 0  0.78 0.14 0  0.8100000000000001 0.14 0  0.84 0.14 0  0.87 0.14 0  0.9 0.14 0  0.93 0.14 0  0.96 0.14 0  0.99 0.14 0  1.02 0.14 0  1.05 0.14 0  1.08 0.14 0  1.11 0.14 0  1.14 0.14 0  1.17 0.14 0  1.2 0.14 0  1.23 0.14 0  1.26 0.14 0  1.29 0.14 0  1.32 0.14 0  1.35 0.14 0  1.38 0.14 0  1.41 0.14 0  1.44 0.14 0  1.47 0.14 0  1.5 0.14 0  0 0.16 0  0.03 0.16 0  0.06 0.16 0  0.09 0.16 0  0.12 0.16 0  0.15 0.16 0  0.18 0.16 0  0.21 0.16 0  0.24 0.16 0  0.27 0.16 0  0.3 0.16 0  0.33 0.16 0  0.36 0.16 0  0.39 0.16 0  0.42 0.16 0  0.45 0.16 0  0.48 0.16 0  0.51 0.16 0  0.54 0.16 0  0.57 0.16 0  0.6 0.16 0  0.63 0.16 0  0.66 0.16 0  0.6899999999999999 0.16 0  0.72 0.16 0  0.75 0.16 0  0.78 0.16 0  0.8100000000000001 0.16 0  0.84 0.16 0  0.87 0.16 0  0.9 0.16 0  0.93 0.16 0  0.96 0.16 0  0.99 0.16 0  1.02 0.16 0  1.05 0.16 0  1.08 0.16 0  1.11 0.16 0  1.14 0.16 0  1.17 0.16 0  1.2 0.16 0  1.23 0.16 0  1.26 0.16 0  1.29 0.16 0  1.32 0.16 0  1.35 0.16 0  1.38 0.16 0  1.41 0.16 0  1.44 0.16 0  1.47 0.16 0  1.5 0.16 0  0 0.18 0  0.03 0.18 0  0.06 0.18 0  0.09 0.18 0  0.12 0.18 0  0.15 0.18 0  0.18 0.18 0  0.21 0.18 0  0.24 0.18 0  0.27 0.18 0  0.3 0.18 0  0.33 0.18 0  0.36 0.18 0  0.39 0.18 0  0.42 0.18 0  0.45 0.18 0  0.48 0.18 0  0.51 0.18 0  0.54 0.18 0  0.57 0.18 0  0.6 0.18 0  0.63 0.18 0  0.66 0.18 0  0.6899999999999999 0.18 0  0.72 0.18 0  0.75 0.18 0  0.78 0.18 0  0.8100000000000001 0.18 0  0.84 0.18 0  0.87 0.18 0  0.9 0.18 0  0.93 0.18 0  0.96 0.18 0  0.99 0.18 0  1.02 0.18 0  1.05 0.18 0  1.08 0.18 0  1.11 0.18 0  1.14 0.18 0  1.17 0.18 0  1.2 0.18 0  1.23 0.18 0  1.26 0.18 0  1.29 0.18 0  1.32 0.18 0  1.35 0.18 0  1.38 0.18 0  1.41 0.18 0  1.44 0.18 0  1.47 0.18 0  1.5 0.18 0  0 0.2 0  0.03 0.2 0  0.06 0.2 0  0.09 0.2 0  0.12 0.2 0  0.15 0.2 0  0.18 0.2 0  0.21 0.2 0  0.24 0.2 0  0.27 0.2 0  0.3 0.2 0  0.33 0.2 0  0.36 0.2 0  0.39 0.2 0  0.42 0.2 0  0.45 0.2 0  0.48 0.2 0  0.51 0.2 0  0.54 0.2 0  0.57 0.2 0  0.6 0.2 0  0.63 0.2 0  0.66 0.2 0  0.6899999999999999 0.2 0  0.72 0.2 0  0.75 0.2 0  0.78 0.2 0  0.8100000000000001 0.2 0  0.84 0.2 0  0.87 0.2 0  0.9 0.2 0  0.93 0.2 0  0.96 0.2 0  0.99 0.2 0  1.02 0.2 0  1.05 0.2 0  1.08 0.2 0  1.11 0.2 0  1.14 0.2 0  1.17 0.2 0  1.2 0.2 0  1.23 0.2 0  1.26 0.2 0  1.29 0.2 0  1.32 0.2 0  1.35 0.2 0  1.38 0.2 0  1.41 0.2 0  1.44 0.2 0  1.47 0.2 0  1.5 0.2 0  0 0.22 0  0.03 0.22 0  0.06 0.22 0  0.09 0.22 0  0.12 0.22 0  0.15 0.22 0  0.18 0.22 0  0.21 0.22 0  0.24 0.22 0  0.27 0.22 0  0.3 0.22 0  0.33 0.22 0  0.36 0.22 0  0.39 0.22 0  0.42 0.22 0  0.45 0.22 0  0.48 0.22 0  0.51 0.22 0  0.54 0.22 0  0.57 0.22 0  0.6 0.22 0  0.63 0.22 0  0.66 0.22 0  0.6899999999999999 0.22 0  0.72 0.22 0  0.75 0.22 0  0.78 0.22 0  0.8100000000000001 0.22 0  0.84 0.22 0  0.87 0.22 0  0.9 0.22 0  0.93 0.22 0  0.96 0.22 0  0.99 0.22 0  1.02 0.22 0  1.05 0.22 0  1.08 0.22 0  1.11 0.22 0  1.14 0.22 0  1.17 0.22 0  1.2 0.22 0  1.23 0.22 0  1.26 0.22 0  1.29 0.22 0  1.32 0.22 0  1.35 0.22 0  1.38 0.22 0  1.41 0.22 0  1.44 0.22 0  1.47 0.22 0  1.5 0.22 0  0 0.24 0  0.03 0.24 0  0.06 0.24 0  0.09 0.24 0  0.12 0.24 0  0.15 0.24 0  0.18 0.24 0  0.21 0.24 0  0.24 0.24 0  0.27 0.24 0  0.3 0.24 0  0.33 0.24 0  0.36 0.24 0  0.39 0.24 0  0.42 0.24 0  0.45 0.24 0  0.48 0.24 0  0.51 0.24 0  0.54 0.24 0  0.57 0.24 0  0.6 0.24 0  0.63 0.24 0  0.66 0.24 0  0.6899999999999999 0.24 0  0.72 0.24 0  0.75 0.24 0  0.78 0.24 0  0.8100000000000001 0.24 0  0.84 0.24 0  0.87 0.24 0  0.9 0.24 0  0.93 0.24 0  0.96 0.24 0  0.99 0.24 0  1.02 0.24 0  1.05 0.24 0  1.08 0.24 0  1.11 0.24 0  1.14 0.24 0  1.17 0.24 0  1.2 0.24 0  1.23 0.24 0  1.26 0.24 0  1.29 0.24 0  1.32 0.24 0  1.35 0.24 0  1.38 0.24 0  1.41 0.24 0  1.44 0.24 0  1.47 0.24 0  1.5 0.24 0  0 0.26 0  0.03 0.26 0  0.06 0.26 0  0.09 0.26 0  0.12 0.26 0  0.15 0.26 0  0.18 0.26 0  0.21 0.26 0  0.24 0.26 0  0.27 0.26 0  0.3 0.26 0  0.33 0.26 0  0.36 0.26 0  0.39 0.26 0  0.42 0.26 0  0.45 0.26 0  0.48 0.26 0  0.51 0.26 0  0.54 0.26 0  0.57 0.26 0  0.6 0.26 0  0.63 0.26 0  0.66 0.26 0  0.6899999999999999 0.26 0  0.72 0.26 0  0.75 0.26 0  0.78 0.26 0  0.8100000000000001 0.26 0  0.84 0.26 0  0.87 0.26 0  0.9 0.26 0  0.93 0.26 0  0.96 0.26 0  0.99 0.26 0  1.02 0.26 0  1.05 0.26 0  1.08 0.26 0  1.11 0.26 0  1.14 0.26 0  1.17 0.26 0  1.2 0.26 0  1.23 0.26 0  1.26 0.26 0  1.29 0.26 0  1.32 0.26 0  1.35 0.26 0  1.38 0.26 0  1.41 0.26 0  1.44 0.26 0  1.47 0.26 0  1.5 0.26 0  0 0.28 0  0.03 0.28 0  0.06 0.28 0  0.09 0.28 0  0.12 0.28 0  0.15 0.28 0  0.18 0.28 0  0.21 0.28 0  0.24 0.28 0  0.27 0.28 0  0.3 0.28 0  0.33 0.28 0  0.36 0.28 0  0.39 0.28 0  0.42 0.28 0  0.45 0.28 0  0.48 0.28 0  0.51 0.28 0  0.54 0.28 0  0.57 0.28 0  0.6 0.28 0  0.63 0.28 0  0.66 0.28 0  0.6899999999999999 0.28 0  0.72 0.28 0  0.75 0.28 0  0.78 0.28 0  0.8100000000000001 0.28 0  0.84 0.28 0  0.87 0.28 0  0.9 0.28 0  0.93 0.28 0  0.96 0.28 0  0.99 0.28 0  1.02 0.28
[...]
<PointData  Scalars="ControlVisualisation"> 
<DataArray  type="Float64"  Name="ControlVisualisation"  format="ascii">2.0193424290101847e-01  1.3459662973514094e-01  1.3477695844023035e-01  1.3516077476296434e-01  1.3574758664506953e-01  1.3645206663297368e-01  1.3717117157089975e-01  1.3783668840574226e-01  1.3841955414723695e-01  1.3891136981335206e-01  1.3930961852327878e-01  1.3961410027904714e-01  1.3982901084856447e-01  1.3996433262743541e-01  1.4003553142054415e-01  1.4006289001154995e-01  1.4006805181329662e-01  1.4006642141301734e-01  1.4006303028057182e-01  1.4005683924071072e-01  1.4004680227109853e-01  1.4003352612298708e-01  1.4001861160621926e-01  1.4000463632238250e-01  1.3999491016614174e-01  1.3999197172931943e-01  1.3999616332540199e-01  1.4000598413149293e-01  1.4001984029594805e-01  1.4003701657589099e-01  1.4005668315664316e-01  1.4007659103040890e-01  1.4009338716835465e-01  1.4010330013411132e-01  1.4010093770731219e-01  1.4007691971485853e-01  1.4001665753818071e-01  1.3990136304217510e-01  1.3971171101127400e-01  1.3943356193258577e-01  1.3906180833073273e-01  1.3859814156179195e-01  1.3804545171416199e-01  1.3740835442767765e-01  1.3670568434949143e-01  1.3598932459300583e-01  1.3535138218130721e-01  1.3489097265230890e-01  1.3464554358881620e-01  1.3455470338772435e-01  3.3096580319020386e-01  1.3457283716550739e-01  5.8962908406428163e-02  5.9443411555505102e-02  6.0518153960994636e-02  6.2236322531431354e-02  6.4372573168586147e-02  6.6618329175003835e-02  6.8773854688121611e-02  7.0778406819559964e-02  7.2614337804615445e-02  7.4220542579566132e-02  7.5499848516709142e-02  7.6383655352527460e-02  7.6876032067170988e-02  7.7051633386128748e-02  7.7024368265288273e-02  7.6901793918749128e-02  7.6747019816866574e-02  7.6581123952400729e-02  7.6415222385642217e-02  7.6265047293661306e-02  7.6139903878805371e-02  7.6037638056958012e-02  7.5956472591767701e-02  7.5903765693858830e-02  7.5889213090773538e-02  7.5913053368390618e-02  7.5964837040574551e-02  7.6034481122736211e-02  7.6122446062385427e-02  7.6236874120596460e-02  7.6383074953298186e-02  7.6559889814637558e-02  7.6760902901022068e-02  7.6965536342064281e-02  7.7121790472316376e-02  7.7138099389527384e-02  7.6893760232744524e-02  7.6270594122934188e-02  7.5205292597512061e-02  7.3734402088819997e-02  7.1978352141453109e-02  7.0056065181307470e-02  6.8012887583538642e-02  6.5853741837889904e-02  6.3658324309423434e-02  6.1651801034144596e-02  6.0131565123654820e-02  5.9259353053542602e-02  5.8901942182905079e-02  1.3455119726948583e-01  1.3463807655247251e-01  5.9174862981588708e-02  6.0183967630252522e-02  6.2400087435594553e-02  6.5934019867912669e-02  7.0318979390362649e-02  7.4907263183472766e-02  7.9279634493408691e-02  8.3339342710128980e-02  8.7094496384645489e-02  9.0435418460712666e-02  9.3145631572043211e-02  9.5061456828742646e-02  9.6175639988731063e-02  9.6630001612771466e-02  9.6649556337112363e-02  9.6447670160750995e-02  9.6141854177660982e-02  9.5767319900486134e-02  9.5360746572847724e-02  9.4983054874932263e-02  9.4671660275087222e-02  9.4422346927173897e-02  9.4226055054518601e-02  9.4097514470900201e-02  9.4060329307014301e-02  9.4116399573659359e-02  9.4239739338188008e-02  9.4402055396254139e-02  9.4600403769690339e-02  9.4853204266536539e-02  9.5172399922170095e-02  9.5552567669860408e-02  9.5979141806904006e-02  9.6413234605746856e-02  9.6752328037501945e-02  9.6813295332358315e-02  9.6354607975371417e-02  9.5132559021746915e-02  9.3001906054618028e-02  9.0023613886559467e-02  8.6456083018515137e-02  8.2573343431928278e-02  7.8469659724182322e-02  7.4105953046791545e-02  6.9585050287739481e-02  6.5329995106664734e-02  6.1978224708973517e-02  5.9958711297980180e-02  5.9086702420245191e-02  1.3459322037118449e-01  1.3473297711364535e-01  5.9568874774135097e-02  6.1497616498718821e-02  6.5311944020972054e-02  7.0897995208825379e-02  7.7316314250024401e-02  8.3546153565051726e-02  8.9097217315481342e-02  9.4048662969300617e-02  9.8595981740163763e-02  1.0266869127140661e-01  1.0598316339352455e-01  1.0832054306828538e-01  1.0967086490941977e-01  1.1020895680987329e-01  1.1021720655148474e-01  1.0996169255905787e-01  1.0955427381724205e-01  1.0899655682372007e-01  1.0835138926498004e-01  1.0775157424646577e-01  1.0726958321386693e-01  1.0688671129962907e-01  1.0658019000601118e-01  1.0637752325063730e-01  1.0632314528801629e-01  1.0642193993165874e-01  1.0662821214010593e-01  1.0689020136091842e-01  1.0720083105997266e-01  1.0759173164009568e-01  1.0807814513023113e-01  1.0863994016119541e-01  1.0925430930385864e-01  1.0988367757971758e-01  1.1040691711362115e-01  1.1059459248074467e-01  1.1014726640758821e-01  1.0875246511720164e-01  1.0619625999194761e-01  1.0253822375294089e-01  9.8146151409482171e-02  9.3413323098617482e-02  8.8383569044142685e-02  8.2792261581241186e-02  7.6554390457626742e-02  7.0171298004267080e-02  6.4700255125221401e-02  6.1087495007205020e-02  5.9387677849398288e-02  1.3466859063070691e-01  1.3483609312476197e-01  6.0350152029368387e-02  6.4522850273720914e-02  7.1795973397127816e-02  8.0995065346988762e-02  9.0093283818627523e-02  9.7590271877539173e-02  1.0324896516225877e-01  1.0780468015897181e-01  1.1190982264825873e-01  1.1557304704127205e-01  1.1848320991002588e-01  1.2044128524087666e-01  1.2144834182532822e-01  1.2166628886321548e-01  1.2138875219210399e-01  1.2092163811485775e-01  1.2033347214844843e-01  1.1952184388701377e-01  1.1856464379548498e-01  1.1770318156449967e-01  1.1704525278656121e-01  1.1652440745460801e-01  1.1608969052698696e-01  1.1579515881964482e-01  1.1572406573582175e-01  1.1588860169208337e-01  1.1621232748044261e-01  1.1660511803531129e-01  1.1705476604937497e-01  1.1762112242865232e-01  1.1832718599306936e-01  1.1912043731870055e-01  1.1996809599742606e-01  1.2086859209967422e-01  1.2172114352469067e-01  1.2228273507725629e-01  1.2224739273217983e-01  1.2128438653712240e-01  1.1910129742308923e-01  1.1570997815844480e-01  1.1160672610152275e-01  1.0736491856603740e-01  1.0282727307424069e-01  9.7123561108083581e-02  8.9603847250230712e-02  8.0441722980490085e-02  7.1020838264651470e-02  6.3736353871864188e-02  5.9957990716729206e-02  1.3475650069160194e-01  1.3502417298502511e-01  6.2152280400231366e-02  7.2605845227518687e-02  8.8362118687769525e-02  1.0332474758839272e-01  1.1442801002086524e-01  1.2142210907661415e-01  1.2500450992369661e-01  1.2692315630027706e-01  1.2871014088227650e-01  1.3045066195197269e-01  1.3160726164516279e-01  1.3202469616022613e-01  1.3186988391635029e-01  1.3131444123293978e-01  1.3053588872628891e-01  1.2978174007899312e-01  1.2900895521814015e-01  1.2791085298654309e-01  1.2656945016994248e-01  1.2539982434850008e-01  1.2455079149556490e-01  1.2386446513874590e-01  1.2325183276414137e-01  1.2282196211283583e-01  1.2272310884727054e-01  1.2297821278572851e-01  1.2346052272237092e-01  1.2401153879004052e-01  1.2460334255448215e-01  1.2534775413506738e-01  1.2628992322364846e-01  1.2730953075964035e-01  1.2834952785933873e-01  1.2951606945688685e-01  1.3081497297504815e-01  1.3203581144045040e-01  1.3292191585295265e-01  1.3316335644224592e-01  1.3233273380571109e-01  1.3039870952296234e-01  1.2812129907252962e-01  1.2631152806075080e-01  1.2466255483038435e-01  1.2150533450805279e-01  1.1504231109321784e-01  1.0424250353260456e-01  8.8208873317090722e-02  7.1133638421470247e-02  6.1253363071740299e-02  1.3485534526390236e-01  1.3595450495527728e-01  6.7773210071696413e-02  9.7485009602613776e-02  1.3848771523497577e-01  1.6087661892853483e-01  1.6505915514160047e-01  1.6202350021939310e-01  1.5706459419089991e-01  1.5385114239011594e-01  1.5261010280098022e-01  1.5079088722418443e-01  1.4762308911878697e-01  1.4419654971611240e-01  1.4122544278091975e-01  1.3876964090450977e-01  1.3699731305371465e-01  1.3602316977285597e-01  1.3531170949538279e-01  1.3419315639366275e-01  1.3271901403216210e-01  1.3146368098107813e-01  1.3058468933209244e-01  1.2978614787637338e-01  1.2896253140769459e-01  1.2834308339397760e-01  1.2818489785524856e-01  1.2853073647192204e-01  1.2918127218702119e-01  1.2985935595563680e-01  1.3048785481198588e-01  1.3126315138147288e-01  1.3232152637413602e-01  1.3348101120752306e-01  1.3464672472336475e-01  1.3609661658278799e-01  1.3808057640585575e-01  1.4065324837584461e-01  1.4385584289683023e-01  1.4737944850045273e-01  1.5006864140708026e-01  1.5104227205783161e-01  1.5137284743150153e-01  1.5345980596479708e-01  1.5804725719683499e-01  1.6198205608717092e-01  1.6182239706930673e-01  1.5632845666180706e-01  1.3753837192833207e-01  1.0189602881513520e-01  6.6675462233459382e-02  1.3514088108131955e-01  1.4351034541447569e-01  1.0218513732538606e-01  1.8448325808777072e-01  2.4191052967018506e-01  2.6475133517086780e-01  2.6334743643420133e-01  2.5079433964145503e-01  2.2840013170694401e-01  2.0570787461772269e-01  1.9055654450453097e-01  1.8293369882663041e-01  1.7583402725306582e-01  1.6575266782809112e-01  1.5560699065334241e-01  1.4717864378964229e-01  1.4085115471667431e-01  1.3850372804613265e-01  1.3796237702134106e-01  1.3654005482772244e-01  1.3503202598567632e-01  1.3441027982298365e-01  1.3409458398068930e-01  1.3353526477728844e-01  1.3267489750720277e-01  1.3194101848035547e-01  1.3174133151615888e-01  1.3216682629915402e-01  1.3297159079627979e-01  1.3375013750806264e-01  1.3436674278571648e-01  1.3515499038698633e-01  1.3630615486346409e-01  1.3747461006076278e-01  1.3883238630182104e-01  1.4144304656686427e-01  1.4589123961096154e-01  1.5211037181644177e-01  1.6002508987997333e-01  1.6839225709083952e-01  1.7533611421915424e-01  1.8202841685717897e-01  1.9242438538878087e-01  2.0801621160720174e-01  2.2591537888565716e-01  2.4132392148288989e-01  2.5168606832449042e-01  2.5646365118975689e-01  2.4688162720019075e-01  2.1085299930086970e-01  9.7763693723348200e-02  1.3653514967349095e-01  1.9789544642017137e-01  2.3357276162426954e-01  3.3027015422709227e-01  3.4619494471870788e-01  3.3992058007205705e-01  3.3377921493748974e-01  3.2867608263116177e-01  3.1002574387777088e-01  2.8221837452701859e-01  2.5462250325707925e-01  2.2993794142666177e-01  2.1213082275240350e-01  1.9799323010426073e-01  1.8487610655772427e-01  1.7037444033599111e-01  1.5514303459053197e-01  1.5031830491043935e-01  1.4814966615456754e-01  1.3904155538259722e-01  1.3429692312817393e-01  1.3390732709656564e-01  1.3478009757530615e-01  1.3477216057465391e-01  1.3409162410973774e-01  1.3350041097698467e-01  1.3347710482944541e-01  1.3410883836271026e-01  1.3508458761761150e-01  1.3587057999835672e-01  1.3638884570618021e-01  1.3744987638478567e-01  1.3987226254623081e-01  1.4242129501021134e-01  1.4461369288766907e-01  1.4998915677591285e-01  1.5991266903851992e-01  1.7112773333478520e-01  1.8245406625745186e-01  1.9501055119360000e-01  2.0989212286017722e-01  2.2878128559894340e-01  2.5350092326196050e-01  2.7906781955954119e-01  3.0336175609026228e-01  3.2413567758327305e-01  3.4076231475709562e-01  3.5887096704219096e-01  3.7491949351735421e-01  3.4877486251374545e-01  2.5881576589936917e-01  1.6995517843330327e-01  4.8888706848301533e-01  5.2064041817701190e-01  5.5483706194179594e-01  5.1140454053181650e-01  4.5781643700547436e-01  4.0274079702869386e-01  3.7278353543450005e-01  3.5465441685216748e-01  3.3472416235642133e-01  3.0728104405411455e-01  2.7592172612084193e-01  2.5141314242507096e-01  2.3363243505135009e-01  2.1673969658077546e-01  1.9891708541459399e-01  1.8035334108881915e-01  1.6880611752390157e-01  1.3390246208754555e-01  1.5284470074012016e-01  1.4339631338167336e-01  1.3845477054311572e-01  1.3864964477948172e-01  1.3765178420988328e-01  1.3575276412540460e-01  1.3477540444224337e-01  1.3501835826830061e-01  1.3634043117542283e-01  1.3823779588363477e-01  1.3948985273771658e-01  1.3982435032856538e-01  1.4112901311254022e-01  1.4562718124968987e-01  1.5207329966956198e-01  1.5878096661822313e-01  1.6676121688664891e-01  1.7920037215789586e-01  1.9496608780289251e-01  2.1142037231225491e-01  2.3065089816065246e-01  2.5345885213585817e-01  2.7775567126260120e-01  3.0497924007789984e-01  3.3389633452899198e-01  3.5780411825078617e-01  3.7997514841432661e-01  4.1269317831460506e-01  4.6410173761926787e-01  5.2956207361236463e-01  5.7115661505649717e-01  5.4352717342576140e-01  4.2671050473484595e-01  7.9064583081904116e-01  8.4118285042482221e-01  7.5689405548943423e-01  6.7666168629269352e-01  5.9718084074222377e-01  5.2140611471054088e-01  4.5967618842478003e-01  4.1576485927609941e-01  3.8693194286584254e-01  3.6077369238488949e-01  3.2761393192338800e-01  2.9574412285636931e-01  2.6924879199597451e-01  2.4697623247887329e-01  2.2918723496470031e-01  2.1400459626206542e-01  1.9485220866337866e-01  1.8219813658799841e-01  1.7165639962404911e-01  1.5588893285216943e-01  1.4899054330079275e-01  1.4525626557319318e-01  1.4366932551719191e-01  1.4133862112596893e-01  1.3932522127283911e-01  1.3912731759960331e-01  1.4056148041598954e-01  1.4317349066900542e-01  1.4590172863128495e-01  1.4822893948346727e-01  1.5080903012624336e-01  1.5604761090304137e-01  1.6595604874996084e-01  1.7833066657711835e-01  1.9150239756109311e-01  2.0782330252856540e-01  2.2753984059691382e-01  2.4915333935353132e-01  2.7339140349728047e-01  3.0034813179992204e-01  3.3076679786188345e-01  3.6133675219894257e-01  3.8778974375801234e-01  4.1610110912882448e-01  4.5756174930081911e-01  5.2000874423715293e-01  6.0158850776674322e-01  6.8757103543784126e-01  7.6335551383471612e-01  8.6083639443629600e-01  7.5272950453349008e-01  9.1425033126457789e-01  9.7646694532989775e-01  8.9241733572481452e-01  7.7445176788599657e-01  6.8171132819737612e-01  6.0555766734722360e-01  5.4240828737677971e-01  4.8906841560417952e-01  4.4667412197057493e-01  4.1354508529416628e-01  3.8021308861012204e-01  3.4376971793163202e-01  3.1204974508991029e-01  2.8548725055523677e-01  2.6126352334253600e-01  2.4131780495692798e-01  2.2795323453560284e-01  2.1310742628019694e-01  1.9467829932559438e-01  1.8057657443653269e-01  1.7141429732825778e-01  1.6458248318042479e-01  1.5990225539553954e-01  1.5489747802444587e-01  1.5107073717165637e-01  1.5002682686620789e-01  1.5153189922571708e-01  1.5528225486069677e-01  1.6064285326609407e-01  1.6621143714495124e-01  1.7185537602692608e-01  1.7949624312044676e-01  1.9096903646760771e-01  2.0633713305515031e-01  2.2401412965108475e-01  2.4384641976272634e-01  2.6690778826432354e-01  2.9202168323941902e-01  3.1836589289536565e-01  3.4819094841463122e-01  3.7975819550406309e-01  4.0840530634152883e-01  4.3818689765775554e-01  4.7951780241547470e-01  5.3814116708898818e-01  6.1151899436752866e-01  6.9538945934362306e-01  7.9259331234720054e-01  8.9860844185228361e-01  9.7543629507783125e-01  8.9852464396031217e-01  9.4619684570008278e-01  9.9668592056947458e-01  9.6359974908336710e-01  8.6564166680976873e-01  7.4160042262097614e-01  6.5242250127799750e-01  5.8591961284238669e-01  5.3603718808342382e-01  4.9407069338580090e-01  4.5590553601913480e-01  4.2255059347287605e-01  3.9092154786087796e-01  3.5847010240687971e-01  3.2841516675140053e-01  3.0226816978129956e-01  2.7884619206171934e-01  2.5954147671468830e-01  2.4461409177881235e-01  2.2873134515536983e-01  2.1308456704430614e-01  2.0319771652575291e-01  1.9542518709620149e-01  1.8784866650205762e-01  1.8190318429412888e-01  1.7813893372547240e-01  1.7678405846639619e-01  1.7779313441799841e-01  1.8108830325777142e-01  1.8656575450112528e-01  1.9381053026174988e-01  2.0247986146425787e-01  2.1291178868315383e-01  2.2601962425514022e-01  2.4275862781728846e-01  2.6316298955027467e-01  2.8617537073845939e-01  3.1065856421784432e-01  3.3645084473540365e-01  3.6388219250159337e-01  3.9194283529257884e-01  4.1946710712399948e-01  4.4867037547973920e-01  4.8409478528375138e-01  5.3030540232886614e-01  5.8989804968947468e-01  6.6333057011589880e-01  7.5301288908945385e-01  8.6379503459070861e-01  9.5739820215610782e-01  9.9537735879950773e-01  9.4298562941838715e-01  9.4373338357815695e-01  9.9760442126180626e-01  9.7298252528870477e-01  9.0164956549381037e-01  7.8800037322839367e-01  6.8392110016312346e-01  6.1205524603682859e-01  5.5991419693501676e-01  5.2185453299932782e-01  4.8942932106483011e-01  4.5726266513431002e-01  4.2742919955386377e-01  4.0005813612644947e-01  3.7329274911423826e-01  3.4722991405219361e-01  3.2319064529857960e-01  3.0227178722704040e-01  2.8443545444197949e-01  2.6739210735292507e-01  2.5029159284155444e-01  2.3705943468919830e-01  2.2846938769151465e-01  2.2102041944347781e-01  2.1474305927413453e-01  2.1103631903816017e-01  2.0993449068450451e-01  2.1115666883918588e-01  2.1482964353335510e-01  2.2110054687665842e-01  2.2980862343808259e-01  2.4081666815393449e-01  2.5426543477241215e-01  2.7011864588304024e-01  2.8810029825534833e-01  3.0832484716063047e-01  3.3070756199472595e-01  3.5418523824758608e-01  3.7761702530613650e-01  4.0090258640080617e-01  4.2518153452443924e-01  4.5186674034620317e-01  4.8184609960312813e-01  5.1715599614208607e-01  5.6213344117156805e-01  6.1942040932068676e-01  6.9199691698256227e-01  7.8810907835028410e-01  8.9735897934897890e-01  9.7117349332182001e-01  9.9690620384914930e-01  9.4629652148015375e-01  9.0188467950238327e-01  9.8911160978604873e-01  9.4741921762583026e-01  8.7612255220778468e-01  7.8423269267961482e-01  6.9414054306149231e-01  6.2382928009964045e-01  5.7428638845964197e-01  5.3732916803860786e-01  5.0909826868148966e-01  4.8351993770242946e-01  4.5723632958860499e-01  4.3207120480421507e-01  4.0946428636263787e-01  3.8863377254104869e-01  3.6843377127202315e-01  3.4919606788646940e-01  3.3178036281258266e-01  3.1562728503435022e-01  3.0004355360822049e-01  2.8652512555680010e-01  2.7650249503081425e-01  2.6878305011041193e-01  2.6241854005736492e-01  2.5830586752722917e-01  2.5721871522155987e-01  2.5907690000169648e-01  2.6352102071025363e-01  2.7020018113908312e-01  2.7888290414319195e-01  2.8965286497259812e-01  3.0279533455126384e-01  3.1841126421802385e-01  3.3612290200423567e-01  3.5489556231440106e-01  3.7340914574758538e-01  3.9118555681120171e-01  4.0915645808636042e-01  4.2899891410657154e-01  4.5168212121593021e-01  4.7716405006715634e-01  5.0582405257342311e-01  5.3921811865026081e-01  5.7925317433628765e-01  6.2853968266319626e-01  6.9371941548808747e-01  7.8101831225430163e-01  8.7783432356424107e-01  9.5253930680878740e-01  9.8771188065184556e-01  9.1559262678609232e-01  7.5490407201113452e-01  9.0219926161539354e-01  8.4820918119685851e-01  7.9186133160273109e-01  7.2795062066716976e-01  6.6723618342622726e-01  6.1573534912302408e-01  5.7530503278917644e-01  5.4395991694054513e-01  5.1897259751538738e-01  4.9821814581770835e-01  4.7886132518808777e-01  4.5922857433862185e-01  4.4028207263770747e-01  4.2337951047536515e-01  4.0836635665054721e-01  3.9430771775799672e-01  3.8072739034372699e-01  3.6740117653950971e-01  3.5416135492821271e-01  3.4179843294040124e-01  3.3164137196312587e-01  3.2398822433317287e-01  3.1844007009290309e-01  3.1498733087882036e-01  3.1388839235271276e-01  3.1521045814535076e-01  3.1885418010366984e-01  3.2474716871479470e-01  3.3285915425599966e-01  3.4311104236287332e-01  3.5524334179830475e-01  3.6866834801826176e-01  3.8247901831062808e-01  3.9583779062928726e-01  4.0863610511012383e-01  4.2172752460263391e-01  4.3628340695067214e-01  4.5309282884269403e-01  4.7272412093895833e-01  4.9582101956872426e-01  5.2187254707704711e-01  5.4934624614130501e-01  5.7902387020856083e-01  6.1524752627419177e-01  6.6359624256155847e-01  7.2450209663522991e-01  7.9131793206971945e-01  8.6022587512999227e-01  8.9742767297021742e-01  7.9616246094648069e-01  4.3504868510652045e-01  6.2514641493193857e-01  6.8648358357912087e-01  6.6647523309580037e-01  6.3022632397857425e-01  6.0201734140969387e-01  5.7965039396087270e-01  5.5921178097905133e-01  5.3954858715559695e-01  5.2128608753698491e-01  5.0482399538968403e-01  4.9055020726478971e-01  4.780766420