<?xml version="1.0"?>
<VTKFile type="UnstructuredGrid"  version="0.1"  >
<UnstructuredGrid>
<Piece  NumberOfPoints="2601" NumberOfCells="5000">
<Points>
<DataArray  type="Float64"  NumberOfComponents="3"  format="ascii">0 0 0  0.03 0 0  0.06 0 0  0.09 0 0  0.12 0 0  0.15 0 0  0.18 0 0  0.21 0 0  0.24 0 0  0.27 0 0  0.3 0 0  0.33 0 0  0.36 0 0  0.39 0 0  0.42 0 0  0.45 0 0  0.48 0 0  0.51 0 0  0.54 0 0  0.57 0 0  0.6 0 0  0.63 0 0  0.66 0 0  0.6899999999999999 0 0  0.72 0 0  0.75 0 0  0.78 0 0  0.8100000000000001 0 0  0.84 0 0  0.87 0 0  0.9 0 0  0.93 0 0  0.96 0 0  0.99 0 0  1.02 0 0  1.05 0 0  1.08 0 0  1.11 0 0  1.14 0 0  1.17 0 0  1.2 0 0  1.23 0 0  1.26 0 0  1.29 0 0  1.32 0 0  1.35 0 0  1.38 0 0  1.41 0 0  1.44 0 0  1.47 0 0  1.5 0 0  0 0.02 0  0.03 0.02 0  0.06 0.02 0  0.09 0.02 0  0.12 0.02 0  0.15 0.02 0  0.18 0.02 0  0.21 0.02 0  0.24 0.02 0  0.27 0.02 0  0.3 0.02 0  0.33 0.02 0  0.36 0.02 0  0.39 0.02 0  0.42 0.02 0  0.45 0.02 0  0.48 0.02 0  0.51 0.02 0  0.54 0.02 0  0.57 0.02 0  0.6 0.02 0  0.63 0.02 0  0.66 0.02 0  0.6899999999999999 0.02 0  0.72 0.02 0  0.75 0.02 0  0.78 0.02 0  0.8100000000000001 0.02 0  0.84 0.02 0  0.87 0.02 0  0.9 0.02 0  0.93 0.02 0  0.96 0.02 0  0.99 0.02 0  1.02 0.02 0  1.05 0.02 0  1.08 0.02 0  1.11 0.02 0  1.14 0.02 0  1.17 0.02 0  1.2 0.02 0  1.23 0.02 0  1.26 0.02 0  1.29 0.02 0  1.32 0.02 0  1.35 0.02 0  1.38 0.02 0  1.41 0.02 0  1.44 0.02 0  1.47 0.02 0  1.5 0.02 0  0 0.04 0  0.03 0.04 0  0.06 0.04 0  0.09 0.04 0  0.12 0.04 0  0.15 0.04 0  0.18 0.04 0  0.21 0.04 0  0.24 0.04 0  0.27 0.04 0  0.3 0.04 0  0.33 0.04 0  0.36 0.04 0  0.39 0.04 0  0.42 0.04 0  0.45 0.04 0  0.48 0.04 0  0.51 0.04 0  0.54 0.04 0  0.57 0.04 0  0.6 0.04 0  0.63 0.04 0  0.66 0.04 0  0.6899999999999999 0.04 0  0.72 0.04 0  0.75 0.04 0  0.78 0.04 0  0.8100000000000001 0.04 0  0.84 0.04 0  0.87 0.04 0  0.9 0.04 0  0.93 0.04 0  0.96 0.04 0  0.99 0.04 0  1.02 0.04 0  1.05 0.04 0  1.08 0.04 0  1.11 0.04 0  1.14 0.04 0  1.17 0.04 0  1.2 0.04 0  1.23 0.04 0  1.26 0.04 0  1.29 0.04 0  1.32 0.04 0  1.35 0.04 0  1.38 0.04 0  1.41 0.04 0  1.44 0.04 0  1.47 0.04 0  1.5 0.04 0  0 0.06 0  0.03 0.06 0  0.06 0.06 0  0.09 0.06 0  0.12 0.06 0  0.15 0.06 0  0.18 0.06 0  0.21 0.06 0  0.24 0.06 0  0.27 0.06 0  0.3 0.06 0  0.33 0.06 0  0.36 0.06 0  0.39 0.06 0  0.42 0.06 0  0.45 0.06 0  0.48 0.06 0  0.51 0.06 0  0.54 0.06 0  0.57 0.06 0  0.6 0.06 0  0.63 0.06 0  0.66 0.06 0  0.6899999999999999 0.06 0  0.72 0.06 0  0.75 0.06 0  0.78 0.06 0  0.8100000000000001 0.06 0  0.84 0.06 0  0.87 0.06 0  0.9 0.06 0  0.93 0.06 0  0.96 0.06 0  0.99 0.06 0  1.02 0.06 0  1.05 0.06 0  1.08 0.06 0  1.11 0.06 0  1.14 0.06 0  1.17 0.06 0  1.2 0.06 0  1.23 0.06 0  1.26 0.06 0  1.29 0.06 0  1.32 0.06 0  1.35 0.06 0  1.38 0.06 0  1.41 0.06 0  1.44 0.06 0  1.47 0.06 0  1.5 0.06 0  0 0.08 0  0.03 0.08 0  0.06 0.08 0  0.09 0.08 0  0.12 0.08 0  0.15 0.08 0  0.18 0.08 0  0.21 0.08 0  0.24 0.08 0  0.27 0.08 0  0.3 0.08 0  0.33 0.08 0  0.36 0.08 0  0.39 0.08 0  0.42 0.08 0  0.45 0.08 0  0.48 0.08 0  0.51 0.08 0  0.54 0.08 0  0.57 0.08 0  0.6 0.08 0  0.63 0.08 0  0.66 0.08 0  0.6899999999999999 0.08 0  0.72 0.08 0  0.75 0.08 0  0.78 0.08 0  0.8100000000000001 0.08 0  0.84 0.08 0  0.87 0.08 0  0.9 0.08 0  0.93 0.08 0  0.96 0.08 0  0.99 0.08 0  1.02 0.08 0  1.05 0.08 0  1.08 0.08 0  1.11 0.08 0  1.14 0.08 0  1.17 0.08 0  1.2 0.08 0  1.23 0.08 0  1.26 0.08 0  1.29 0.08 0  1.32 0.08 0  1.35 0.08 0  1.38 0.08 0  1.41 0.08 0  1.44 0.08 0  1.47 0.08 0  1.5 0.08 0  0 0.1 0  0.03 0.1 0  0.06 0.1 0  0.09 0.1 0  0.12 0.1 0  0.15 0.1 0  0.18 0.1 0  0.21 0.1 0  0.24 0.1 0  0.27 0.1 0  0.3 0.1 0  0.33 0.1 0  0.36 0.1 0  0.39 0.1 0  0.42 0.1 0  0.45 0.1 0  0.48 0.1 0  0.51 0.1 0  0.54 0.1 0  0.57 0.1 0  0.6 0.1 0  0.63 0.1 0  0.66 0.1 0  0.6899999999999999 0.1 0  0.72 0.1 0  0.75 0.1 0  0.78 0.1 0  0.8100000000000001 0.1 0  0.84 0.1 0  0.87 0.1 0  0.9 0.1 0  0.93 0.1 0  0.96 0.1 0  0.99 0.1 0  1.02 0.1 0  1.05 0.1 0  1.08 0.1 0  1.11 0.1 0  1.14 0.1 0  1.17 0.1 0  1.2 0.1 0  1.23 0.1 0  1.26 0.1 0  1.29 0.1 0  1.32 0.1 0  1.35 0.1 0  1.38 0.1 0  1.41 0.1 0  1.44 0.1 0  1.47 0.1 0  1.5 0.1 0  0 0.12 0  0.03 0.12 0  0.06 0.12 0  0.09 0.12 0  0.12 0.12 0  0.15 0.12 0  0.18 0.12 0  0.21 0.12 0  0.24 0.12 0  0.27 0.12 0  0.3 0.12 0  0.33 0.12 0  0.36 0.12 0  0.39 0.12 0  0.42 0.12 0  0.45 0.12 0  0.48 0.12 0  0.51 0.12 0  0.54 0.12 0  0.57 0.12 0  0.6 0.12 0  0.63 0.12 0  0.66 0.12 0  0.6899999999999999 0.12 0  0.72 0.12 0  0.75 0.12 0  0.78 0.12 0  0.8100000000000001 0.12 0  0.84 0.12 0  0.87 0.12 0  0.9 0.12 0  0.93 0.12 0  0.96 0.12 0  0.99 0.12 0  1.02 0.12 0  1.05 0.12 0  1.08 0.12 0  1.11 0.12 0  1.14 0.12 0  1.17 0.12 0  1.2 0.12 0  1.23 0.12 0  1.26 0.12 0  1.29 0.12 0  1.32 0.12 0  1.35 0.12 0  1.38 0.12 0  1.41 0.12 0  1.44 0.12 0  1.47 0.12 0  1.5 0.12 0  0 0.14 0  0.03 0.14 0  0.06 0.14 0  0.09 0.14 0  0.12 0.14 0  0.15 0.14 0  0.18 0.14 0  0.21 0.14 0  0.24 0.14 0  0.27 0.14 0  0.3 0.14 0  0.33 0.14 0  0.36 0.14 0  0.39 0.14 0  0.42 0.14 0  0.45 0.14 0  0.48 0.14 0  0.51 0.14 0  0.54 0.14 0  0.57 0.14 0  0.6 0.14 0  0.63 0.14 0  0.66 0.14 0  0.6899999999999999 0.14 0  0.72 0.14 0  0.75 0.14 0  0.78 0.14 0  0.8100000000000001 0.14 0  0.84 0.14 0  0.87 0.14 0  0.9 0.14 0  0.93 0.14 0  0.96 0.14 0  0.99 0.14 0  1.02 0.14 0  1.05 0.14 0  1.08 0.14 0  1.11 0.14 0  1.14 0.14 0  1.17 0.14 0  1.2 0.14 0  1.23 0.14 0  1.26 0.14 0  1.29 0.14 0  1.32 0.14 0  1.35 0.14 0  1.38 0.14 0  1.41 0.14 0  1.44 0.14 0  1.47 0.14 0  1.5 0.14 0  0 0.16 0  0.03 0.16 0  0.06 0.16 0  0.09 0.16 0  0.12 0.16 0  0.15 0.16 0  0.18 0.16 0  0.21 0.16 0  0.24 0.16 0  0.27 0.16 0  0.3 0.16 0  0.33 0.16 0  0.36 0.16 0  0.39 0.16 0  0.42 0.16 0  0.45 0.16 0  0.48 0.16 0  0.51 0.16 0  0.54 0.16 0  0.57 0.16 0  0.6 0.16 0  0.63 0.16 0  0.66 0.16 0  0.6899999999999999 0.16 0  0.72 0.16 0  0.75 0.16 0  0.78 0.16 0  0.8100000000000001 0.16 0  0.84 0.16 0  0.87 0.16 0  0.9 0.16 0  0.93 0.16 0  0.96 0.16 0  0.99 0.16 0  1.02 0.16 0  1.05 0.16 0  1.08 0.16 0  1.11 0.16 0  1.14 0.16 0  1.17 0.16 0  1.2 0.16 0  1.23 0.16 0  1.26 0.16 0  1.29 0.16 0  1.32 0.16 0  1.35 0.16 0  1.38 0.16 0  1.41 0.16 0  1.44 0.16 0  1.47 0.16 0  1.5 0.16 0  0 0.18 0  0.03 0.18 0  0.06 0.18 0  0.09 0.18 0  0.12 0.18 0  0.15 0.18 0  0.18 0.18 0  0.21 0.18 0  0.24 0.18 0  0.27 0.18 0  0.3 0.18 0  0.33 0.18 0  0.36 0.18 0  0.39 0.18 0  0.42 0.18 0  0.45 0.18 0  0.48 0.18 0  0.51 0.18 0  0.54 0.18 0  0.57 0.18 0  0.6 0.18 0  0.63 0.18 0  0.66 0.18 0  0.6899999999999999 0.18 0  0.72 0.18 0  0.75 0.18 0  0.78 0.18 0  0.8100000000000001 0.18 0  0.84 0.18 0  0.87 0.18 0  0.9 0.18 0  0.93 0.18 0  0.96 0.18 0  0.99 0.18 0  1.02 0.18 0  1.05 0.18 0  1.08 0.18 0  1.11 0.18 0  1.14 0.18 0  1.17 0.18 0  1.2 0.18 0  1.23 0.18 0  1.26 0.18 0  1.29 0.18 0  1.32 0.18 0  1.35 0.18 0  1.38 0.18 0  1.41 0.18 0  1.44 0.18 0  1.47 0.18 0  1.5 0.18 0  0 0.2 0  0.03 0.2 0  0.06 0.2 0  0.09 0.2 0  0.12 0.2 0  0.15 0.2 0  0.18 0.2 0  0.21 0.2 0  0.24 0.2 0  0.27 0.2 0  0.3 0.2 0  0.33 0.2 0  0.36 0.2 0  0.39 0.2 0  0.42 0.2 0  0.45 0.2 0  0.48 0.2 0  0.51 0.2 0  0.54 0.2 0  0.57 0.2 0  0.6 0.2 0  0.63 0.2 0  0.66 0.2 0  0.6899999999999999 0.2 0  0.72 0.2 0  0.75 0.2 0  0.78 0.2 0  0.8100000000000001 0.2 0  0.84 0.2 0  0.87 0.2 0  0.9 0.2 0  0.93 0.2 0  0.96 0.2 0  0.99 0.2 0  1.02 0.2 0  1.05 0.2 0  1.08 0.2 0  1.11 0.2 0  1.14 0.2 0  1.17 0.2 0  1.2 0.2 0  1.23 0.2 0  1.26 0.2 0  1.29 0.2 0  1.32 0.2 0  1.35 0.2 0  1.38 0.2 0  1.41 0.2 0  1.44 0.2 0  1.47 0.2 0  1.5 0.2 0  0 0.22 0  0.03 0.22 0  0.06 0.22 0  0.09 0.22 0  0.12 0.22 0  0.15 0.22 0  0.18 0.22 0  0.21 0.22 0  0.24 0.22 0  0.27 0.22 0  0.3 0.22 0  0.33 0.22 0  0.36 0.22 0  0.39 0.22 0  0.42 0.22 0  0.45 0.22 0  0.48 0.22 0  0.51 0.22 0  0.54 0.22 0  0.57 0.22 0  0.6 0.22 0  0.63 0.22 0  0.66 0.22 0  0.6899999999999999 0.22 0  0.72 0.22 0  0.75 0.22 0  0.78 0.22 0  0.8100000000000001 0.22 0  0.84 0.22 0  0.87 0.22 0  0.9 0.22 0  0.93 0.22 0  0.96 0.22 0  0.99 0.22 0  1.02 0.22 0  1.05 0.22 0  1.08 0.22 0  1.11 0.22 0  1.14 0.22 0  1.17 0.22 0  1.2 0.22 0  1.23 0.22 0  1.26 0.22 0  1.29 0.22 0  1.32 0.22 0  1.35 0.22 0  1.38 0.22 0  1.41 0.22 0  1.44 0.22 0  1.47 0.22 0  1.5 0.22 0  0 0.24 0  0.03 0.24 0  0.06 0.24 0  0.09 0.24 0  0.12 0.24 0  0.15 0.24 0  0.18 0.24 0  0.21 0.24 0  0.24 0.24 0  0.27 0.24 0  0.3 0.24 0  0.33 0.24 0  0.36 0.24 0  0.39 0.24 0  0.42 0.24 0  0.45 0.24 0  0.48 0.24 0  0.51 0.24 0  0.54 0.24 0  0.57 0.24 0  0.6 0.24 0  0.63 0.24 0  0.66 0.24 0  0.6899999999999999 0.24 0  0.72 0.24 0  0.75 0.24 0  0.78 0.24 0  0.8100000000000001 0.24 0  0.84 0.24 0  0.87 0.24 0  0.9 0.24 0  0.93 0.24 0  0.96 0.24 0  0.99 0.24 0  1.02 0.24 0  1.05 0.24 0  1.08 0.24 0  1.11 0.24 0  1.14 0.24 0  1.17 0.24 0  1.2 0.24 0  1.23 0.24 0  1.26 0.24 0  1.29 0.24 0  1.32 0.24 0  1.35 0.24 0  1.38 0.24 0  1.41 0.24 0  1.44 0.24 0  1.47 0.24 0  1.5 0.24 0  0 0.26 0  0.03 0.26 0  0.06 0.26 0  0.09 0.26 0  0.12 0.26 0  0.15 0.26 0  0.18 0.26 0  0.21 0.26 0  0.24 0.26 0  0.27 0.26 0  0.3 0.26 0  0.33 0.26 0  0.36 0.26 0  0.39 0.26 0  0.42 0.26 0  0.45 0.26 0  0.48 0.26 0  0.51 0.26 0  0.54 0.26 0  0.57 0.26 0  0.6 0.26 0  0.63 0.26 0  0.66 0.26 0  0.6899999999999999 0.26 0  0.72 0.26 0  0.75 0.26 0  0.78 0.26 0  0.8100000000000001 0.26 0  0.84 0.26 0  0.87 0.26 0  0.9 0.26 0  0.93 0.26 0  0.96 0.26 0  0.99 0.26 0  1.02 0.26 0  1.05 0.26 0  1.08 0.26 0  1.11 0.26 0  1.14 0.26 0  1.17 0.26 0  1.2 0.26 0  1.23 0.26 0  1.26 0.26 0  1.29 0.26 0  1.32 0.26 0  1.35 0.26 0  1.38 0.26 0  1.41 0.26 0  1.44 0.26 0  1.47 0.26 0  1.5 0.26 0  0 0.28 0  0.03 0.28 0  0.06 0.28 0  0.09 0.28 0  0.12 0.28 0  0.15 0.28 0  0.18 0.28 0  0.21 0.28 0  0.24 0.28 0  0.27 0.28 0  0.3 0.28 0  0.33 0.28 0  0.36 0.28 0  0.39 0.28 0  0.42 0.28 0  0.45 0.28 0  0.48 0.28 0  0.51 0.28 0  0.54 0.28 0  0.57 0.28 0  0.6 0.28 0  0.63 0.28 0  0.66 0.28 0  0.6899999999999999 0.28 0  0.72 0.28 0  0.75 0.28 0  0.78 0.28 0  0.8100000000000001 0.28 0  0.84 0.28 0  0.87 0.28 0  0.9 0.28 0  0.93 0.28 0  0.96 0.28 0  0.99 0.28 0  1.02 0.28
[...]
<PointData  Scalars="ControlVisualisation"> 
<DataArray  type="Float64"  Name="ControlVisualisation"  format="ascii">1.9137557040830668e-05  1.2768530316517847e-05  1.2816218194830407e-05  1.2914229522776458e-05  1.3065189033027517e-05  1.3253008394285914e-05  1.3451738745748155e-05  1.3636755494400792e-05  1.3791381968991390e-05  1.3908167816080717e-05  1.3986615452359577e-05  1.4030324316499191e-05  1.4045023732861600e-05  1.4037306759699961e-05  1.4013699114325831e-05  1.3980031670600971e-05  1.3941140348310760e-05  1.3900811442220449e-05  1.3861856804287433e-05  1.3826246448524475e-05  1.3795269230763435e-05  1.3769705015803324e-05  1.3749988163986554e-05  1.3736342000207656e-05  1.3728873085133209e-05  1.3727626642220684e-05  1.3732612242946204e-05  1.3743808221885968e-05  1.3761146224090227e-05  1.3784469097772227e-05  1.3813451952362850e-05  1.3847481170311712e-05  1.3885497954523666e-05  1.3925823775363427e-05  1.3965988915190216e-05  1.4002584517094961e-05  1.4031170906019859e-05  1.4046302207972955e-05  1.4041747763807678e-05  1.4010967206640784e-05  1.3947775946789770e-05  1.3847364118392032e-05  1.3708137980915903e-05  1.3534424387029711e-05  1.3339179976107714e-05  1.3143791712390636e-05  1.2974047577551878e-05  1.2852126431921664e-05  1.2784522339825615e-05  1.2757970932213772e-05  3.8280011633243339e-05  1.2761134693723809e-05  6.3871389661299208e-06  6.4332928871897185e-06  6.5359107800856766e-06  6.7047952532139057e-06  6.9293414981481667e-06  7.1833997064271681e-06  7.4356250471477966e-06  7.6591141740683666e-06  7.8369972284264254e-06  7.9626650664280050e-06  8.0372380014726486e-06  8.0669494396200282e-06  8.0609049860878156e-06  8.0290737600034089e-06  7.9807615239909017e-06  7.9237817673118833e-06  7.8642128290478894e-06  7.8064876402832705e-06  7.7536286729966075e-06  7.7075386356544549e-06  7.6693034156315399e-06  7.6394719358020113e-06  7.6182823595403440e-06  7.6058193632262121e-06  7.6021066842693282e-06  7.6071514720457397e-06  7.6209566229101640e-06  7.6435065142078613e-06  7.6747173970561446e-06  7.7143346601642481e-06  7.7617618315622690e-06  7.8158208574263180e-06  7.8744624590754402e-06  7.9344573150772971e-06  7.9911024600432745e-06  8.0380064793004386e-06  8.0670753066135138e-06  8.0689169400655392e-06  8.0337748780499756e-06  7.9529193640504172e-06  7.8204153995622615e-06  7.6357793323163564e-06  7.4069181075877578e-06  7.1525955894582922e-06  6.9006877770864777e-06  6.6814154972372496e-06  6.5197509790666479e-06  6.4250672176738669e-06  6.3844457691604159e-06  1.2756452749685332e-05  1.2775480980808176e-05  6.4016911602483553e-06  6.4615328540901809e-06  6.5921664025917441e-06  6.8027648307350129e-06  7.0786280433091895e-06  7.3892366926915203e-06  7.6972706919885108e-06  7.9699870497131406e-06  8.1868818363725980e-06  8.3394690856252703e-06  8.4282629788425526e-06  8.4604526297240545e-06  8.4474967677201472e-06  8.4022999284227268e-06  8.3369200352054264e-06  8.2613904504629324e-06  8.1834290588951830e-06  8.1085866795774514e-06  8.0405650002280109e-06  7.9816051638256726e-06  7.9329009324555507e-06  7.8949843110213666e-06  7.8680327203042593e-06  7.8520732636533096e-06  7.8470938873526124e-06  7.8530915333166598e-06  7.8700856644460932e-06  7.8981068906647015e-06  7.9371461817659316e-06  7.9870336838400223e-06  8.0472189547859591e-06  8.1164484853937910e-06  8.1923731011236815e-06  8.2711294298636054e-06  8.3469347347738642e-06  8.4117686313768737e-06  8.4552939159536170e-06  8.4654139541929362e-06  8.4295357421980056e-06  8.3368319487684272e-06  8.1800139417773434e-06  7.9584482717913068e-06  7.6810280064399641e-06  7.3702666378088779e-06  7.0609080109396853e-06  6.7876032279446509e-06  6.5795178257098780e-06  6.4533775911604590e-06  6.3983720633573975e-06  1.2766800626623171e-05  1.2789482057872241e-05  6.4226384308359639e-06  6.5062717464244843e-06  6.6699009992287177e-06  6.9098658979527748e-06  7.2050416982874846e-06  7.5258038309463151e-06  7.8333125753218907e-06  8.0964207297216325e-06  8.2999176058335848e-06  8.4386041128305858e-06  8.5135544836085418e-06  8.5320967017382263e-06  8.5063061802076554e-06  8.4497133268982903e-06  8.3746289777982877e-06  8.2910584735554780e-06  8.2066062181126289e-06  8.1266955578598489e-06  8.0548679064781899e-06  7.9931546704066869e-06  7.9425151052077668e-06  7.9032698435638268e-06  7.8754439610631994e-06  7.8589773865859634e-06  7.8538194610964113e-06  7.8599569911460103e-06  7.8774208437006975e-06  7.9062863477978260e-06  7.9466447183259621e-06  7.9984958079408870e-06  8.0615159830707280e-06  8.1346950713967204e-06  8.2159020992806530e-06  8.3014476056043712e-06  8.3856973561017720e-06  8.4607143908006986e-06  8.5160399334856830e-06  8.5391562025900563e-06  8.5170053137679074e-06  8.4393976378163473e-06  8.2981349969134866e-06  8.0902968800969412e-06  7.8212712052298301e-06  7.5083337842939877e-06  7.1884434012068148e-06  6.8947753252162253e-06  6.6532240595077702e-06  6.4911959455076885e-06  6.4150230681825676e-06  1.2781370710289016e-05  1.2786965068131597e-05  6.4485746984333004e-06  6.5962568017797677e-06  6.8312898311698083e-06  7.1092913564169158e-06  7.4164706366616876e-06  7.7393635956917609e-06  8.0303382041989783e-06  8.2647830745168454e-06  8.4395457885368850e-06  8.5528304187422970e-06  8.6043911693340958e-06  8.6010205026713121e-06  8.5557687470185861e-06  8.4829549393202098e-06  8.3948494335758610e-06  8.3010256891135059e-06  8.2086844584728773e-06  8.1229415782104568e-06  8.0470311602352157e-06  7.9826157254523433e-06  7.9302582785510514e-06  7.8899378155331946e-06  7.8614494901241288e-06  7.8446158062470882e-06  7.8393426775058787e-06  7.8456065160154391e-06  7.8634465858337149e-06  7.8929876855086126e-06  7.9344564966628403e-06  7.9881078979119292e-06  8.0539798886870007e-06  8.1314626640832338e-06  8.2187853994055510e-06  8.3125897710626356e-06  8.4076214887498552e-06  8.4962463607336556e-06  8.5681592457594233e-06  8.6104544732922030e-06  8.6101174889570268e-06  8.5570306802669067e-06  8.4433547434698375e-06  8.2645965403013643e-06  8.0269737204707893e-06  7.7245666846518058e-06  7.4030863029875701e-06  7.1026714748844323e-06  6.8158490338431361e-06  6.5721948011784559e-06  6.4290932585479277e-06  1.2786822713806002e-05  1.2790314620233801e-05  6.5186456574065416e-06  6.9624046709997791e-06  7.5784379304539075e-06  7.8721256206714682e-06  7.9977266403225736e-06  8.1623845906149385e-06  8.3419399103633550e-06  8.5020285243323925e-06  8.6279532657100334e-06  8.7058078997640920e-06  8.7251070200466082e-06  8.6909278690919372e-06  8.6186775017442283e-06  8.5240196592058971e-06  8.4187428728671399e-06  8.3114992061310231e-06  8.2088712993044411e-06  8.1156064486204012e-06  8.0345593263201261e-06  7.9668709551917493e-06  7.9125142567644151e-06  7.8709678529737918e-06  7.8417151648409015e-06  7.8244457571317897e-06  7.8190344564278157e-06  7.8254531878906437e-06  7.8437371619022048e-06  7.8740471269931491e-06  7.9167692566164211e-06  7.9725102177449329e-06  8.0418396064707891e-06  8.1247398227574407e-06  8.2199230238572050e-06  8.3244818008654429e-06  8.4335959560716236e-06  8.5402382954778677e-06  8.6350696622859507e-06  8.7039264528531981e-06  8.7330141983548087e-06  8.7085404145027987e-06  8.6500727888782084e-06  8.5355892536425185e-06  8.4151208176288980e-06  8.2623980583544480e-06  8.1446858801770813e-06  7.9792627608179674e-06  7.3988920573435954e-06  6.7791352872144110e-06  6.4510806093252219e-06  1.2775868550353183e-05  1.3254782634875549e-05  7.0523260834782764e-06  9.6584509967850933e-06  1.6970512497115623e-05  2.2058977888199359e-05  1.5508753747606009e-05  1.1126130769711184e-05  9.3603938197605804e-06  8.9056311756661508e-06  8.8843658669892655e-06  8.9054923350761300e-06  8.8809435735190486e-06  8.8042178036361148e-06  8.6958789216511736e-06  8.5734828487174257e-06  8.4469104757853498e-06  8.3230341811287304e-06  8.2076259382736838e-06  8.1051171411547266e-06  8.0179684154687400e-06  7.9466035296969572e-06  7.8901251290692941e-06  7.8472961083339445e-06  7.8172046017750940e-06  7.7994246501453742e-06  7.7938460383903443e-06  7.8004540776656945e-06  7.8192499779629265e-06  7.8503795947119724e-06  7.8943833670180313e-06  7.9523299952148352e-06  8.0255572414707776e-06  8.1149264841348391e-06  8.2197440752510700e-06  8.3375602193635527e-06  8.4639844811839659e-06  8.5939158553819767e-06  8.7187563172673406e-06  8.8213434085281128e-06  8.8913032327457758e-06  8.9136790193158053e-06  8.9924031620084347e-06  9.1316514031533750e-06  9.8286109807647520e-06  1.1333105431063824e-05  1.4764405620527837e-05  2.1717091964362689e-05  1.7878015140535270e-05  1.0249520879124482e-05  6.9283086014189531e-06  1.2829450139650066e-05  1.4412175679680620e-05  1.5751421437571390e-05  2.9606115835630435e-02  5.7038665700738393e-02  5.2973785610072585e-02  3.3287919969882222e-02  1.0398105470245207e-02  3.0876930086958216e-05  1.1736227092761775e-05  9.5128417821940798e-06  9.1951354535317436e-06  9.0833428078964436e-06  8.9422103785273566e-06  8.7861727584519110e-06  8.6303788904754979e-06  8.4786953405282210e-06  8.3349570647404710e-06  8.2041328639300492e-06  8.0906230908178220e-06  7.9965964635152275e-06  7.9214684658829062e-06  7.8630273035249186e-06  7.8190124168371720e-06  7.7880432673960482e-06  7.7696617811263905e-06  7.7638774991803097e-06  7.7707273890074151e-06  7.7901202977941514e-06  7.8220673858162405e-06  7.8672005602237863e-06  7.9271743646296367e-06  8.0044270195072413e-06  8.1011700231574904e-06  8.2174310098405409e-06  8.3509859899577673e-06  8.4983389858977701e-06  8.6566538692178644e-06  8.8164635916313580e-06  8.9749322915110545e-06  9.1184021390098951e-06  9.2719386916057971e-06  1.0090778980910172e-05  1.2218039622993362e-05  2.4201652313509927e-05  7.6179549860393913e-03  2.9023849111327805e-02  4.9937748035488713e-02  5.7457869209673391e-02  4.1220522473834030e-02  1.6266488158811605e-05  1.4355892943318788e-05  3.1704452756560040e-05  8.9857869283505948e-02  2.0991899079170986e-01  2.1425263449215251e-01  1.8037677778878125e-01  1.3260388632179018e-01  8.2151271269929618e-02  3.7705590126558247e-02  5.7574885429544755e-03  1.6362539073854569e-05  1.0307964757005832e-05  9.4087280090401389e-06  9.1113771994465292e-06  8.8872248050345271e-06  8.6938077271511381e-06  8.5135734950700431e-06  8.3466113760033420e-06  8.1973695396716169e-06  8.0709235728838768e-06  7.9695117370912257e-06  7.8910263927920549e-06  7.8311887609333096e-06  7.7862640819102173e-06  7.7543722906858933e-06  7.7352347872156226e-06  7.7291799282678721e-06  7.7363670581466442e-06  7.7565144438060511e-06  7.7892555430918136e-06  7.8351434613164284e-06  7.8965256944856522e-06  7.9774295808085711e-06  8.0823049345463786e-06  8.2123136810401952e-06  8.3639425326830467e-06  8.5361011738795948e-06  8.7241105531197778e-06  8.9397307914556314e-06  9.2100025182584797e-06  9.6037600510537928e-06  1.0800161964359045e-05  1.6328875052453119e-05  2.5313293606526420e-03  3.0973129614952809e-02  7.5979855502638305e-02  1.2830342248046647e-01  1.7546914257078489e-01  2.0842993010482952e-01  2.0796230799211576e-01  1.1423684320174787e-01  2.3320372570518962e-05  4.0095361494044379e-01  4.6428077580651900e-01  4.9584693130292035e-01  4.2303215366776253e-01  3.5489615232138910e-01  2.7485485916226976e-01  1.9376614879409221e-01  1.1964823910035885e-01  5.9875155965295503e-02  1.6847417699117961e-02  2.9118700683428221e-05  1.1331517821642274e-05  9.4256239932675931e-06  9.0108660106381162e-06  8.7663087532949666e-06  8.5518787080691760e-06  8.3577896757084293e-06  8.1862479860733190e-06  8.0443739855323479e-06  7.9354945208870571e-06  7.8548466433507992e-06  7.7947662941705757e-06  7.7493910134271623e-06  7.7164244556244079e-06  7.6962221927893010e-06  7.6897741262034870e-06  7.6974790920009609e-06  7.7187253248277209e-06  7.7523072248728118e-06  7.7983177041821885e-06  7.8598495300082556e-06  7.9433413986395102e-06  8.0567421106521357e-06  8.2041063013695942e-06  8.3751009471261467e-06  8.5803606369706845e-06  8.8047238598864251e-06  9.1427348225671606e-06  9.8902710409783832e-06  1.1806738491196777e-05  2.3668058720432909e-05  1.1663056146132438e-02  5.3492382955598931e-02  1.1621483974076187e-01  1.8974635935343045e-01  2.7059460715797218e-01  3.5078741057926410e-01  4.1782729079403236e-01  4.4819626295089160e-01  4.6931005386467139e-01  3.5718256260332992e-01  9.9992160814265585e-01  9.9067800984732202e-01  7.8631666600113237e-01  6.6342567300308819e-01  5.5674448107102148e-01  4.4315287032385314e-01  3.3543905498946452e-01  2.3490163249499563e-01  1.4681930100957188e-01  7.6659415085916088e-02  2.7312233916229774e-02  1.9145389780149627e-04  1.2616916082043965e-05  9.4651599901801465e-06  8.8938081134712590e-06  8.6007911249318348e-06  8.3713295703167921e-06  8.1704277413981905e-06  8.0088550212448339e-06  7.8931988672844687e-06  7.8127860005507705e-06  7.7544080521164753e-06  7.7091633724588313e-06  7.6746415869729834e-06  7.6527661321133544e-06  7.6457268825471124e-06  7.6542569075271545e-06  7.6773279215350437e-06  7.7120697923526511e-06  7.7573030315369519e-06  7.8169565074563252e-06  7.9010095340347905e-06  8.0220751861030630e-06  8.1965491294317005e-06  8.3924783675326606e-06  8.6541466916254948e-06  8.9947977003118999e-06  1.0120031780421639e-05  1.3253449806327566e-05  5.0073146867503910e-05  2.1536279552103167e-02  7.1530540121866756e-02  1.4383886216127414e-01  2.3107178892129088e-01  3.3164628864644369e-01  4.4148786245984573e-01  5.4400902967051901e-01  6.5575474877880979e-01  8.0495027315422940e-01  9.9931010413900778e-01  9.9976747112655939e-01  9.9998426067355561e-01  9.9998624851590689e-01  9.9995099506865259e-01  9.0650527893609134e-01  7.4434963755683881e-01  6.1524817331809745e-01  4.8866068307168159e-01  3.6897533636741175e-01  2.5989578128144852e-01  1.6590059391292333e-01  9.1190600835647034e-02  3.8469886435494399e-02  5.5031247745275427e-03  1.6179229985740588e-05  9.9736132972448772e-06  8.8062482152322206e-06  8.4323669123248670e-06  8.1644282594360808e-06  7.9685374153849145e-06  7.8458680790341029e-06  7.7681609751314273e-06  7.7137240734579017e-06  7.6687895994514222e-06  7.6312808920268270e-06  7.6065720219284161e-06  7.5986365445289382e-06  7.6083844849557953e-06  7.6350189343713444e-06  7.6724330445839738e-06  7.7165439909101592e-06  7.7729565425603793e-06  7.8563684703958872e-06  7.9869776273095653e-06  8.2190015350500806e-06  8.4918687503406532e-06  9.0903218664299077e-06  1.0530013796558543e-05  1.6008584656780007e-05  2.2606632366982612e-03  3.2650285063416058e-02  8.7374421200017080e-02  1.6314939882137883e-01  2.5699090986124579e-01  3.6639728713669534e-01  4.8809165066630417e-01  6.0962595553362187e-01  7.4098071794562947e-01  9.3990769881158676e-01  9.9996766116866076e-01  9.9998775156713560e-01  9.9997841489780925e-01  9.9998959793421527e-01  9.9999307962406003e-01  9.9998613574987660e-01  9.9994662136182499e-01  9.1109970643623228e-01  7.6759319580560004e-01  6.3624838007415452e-01  5.0819449802197847e-01  3.8673259532043897e-01  2.7650140903115478e-01  1.8215330364580809e-01  1.0665434360655057e-01  5.1969160494004372e-02  1.6028750164932243e-02  4.0880558482794226e-05  1.2724539309503071e-05  9.5027497282644967e-06  8.4947442415458891e-06  8.0856746839788729e-06  7.8922691705146890e-06  7.7860345708266867e-06  7.7199705153574679e-06  7.6658514026224153e-06  7.6185339101391654e-06  7.5878925316958019e-06  7.5785733802261673e-06  7.5907963995072834e-06  7.6264392666122272e-06  7.6753934753404602e-06  7.7314322761022385e-06  7.8090967343881314e-06  7.9381982199292935e-06  8.1774156455863812e-06  8.8054953998259551e-06  9.9345798173979806e-06  1.2583839017591858e-05  3.1504150053263619e-05  1.1659934557826617e-02  4.7087787899768814e-02  1.0428505128086736e-01  1.7945887321306728e-01  2.7420283133000373e-01  3.8515986708729189e-01  5.0811864305181520e-01  6.3611019288662940e-01  7.6454434340397293e-01  9.3913418262913007e-01  9.9995841780040684e-01  9.9998654329114545e-01  9.9999306828493140e-01  9.9998877569334443e-01  9.9998898967797845e-01  9.9999360213259969e-01  9.9998940174434392e-01  9.9997584832566111e-01  9.9984302753465892e-01  8.8352311282248808e-01  7.6313143511782222e-01  6.3850713100569689e-01  5.1533141783975400e-01  3.9796845286807869e-01  2.9170698880312906e-01  2.0085006973232078e-01  1.2769773038694621e-01  7.3222861756871177e-02  3.5892217514474148e-02  1.1524006153167864e-02  6.1281023800778539e-05  1.6554403259080358e-05  1.1662507754072038e-05  1.0117102587797630e-05  9.3759150161032657e-06  8.9692364882371301e-06  8.7025459794457097e-06  8.5286905277516090e-06  8.4449797523919847e-06  8.4263369347088527e-06  8.4647649362699440e-06  8.5810939112847542e-06  8.7587412043504172e-06  9.0022546082045956e-06  9.4089870080884382e-06  1.0140565348598297e-05  1.1605769006519872e-05  1.5970939078111125e-05  4.8561809951398185e-05  8.6892049260472535e-03  3.1074754404313364e-02  7.0197979915990666e-02  1.2595379084921834e-01  1.9870245902960490e-01  2.8990787630517878e-01  3.9730928767358753e-01  5.1556897846395233e-01  6.4046451416768435e-01  7.6238661812405428e-01  8.9708780446672254e-01  9.9988877299941481e-01  9.9997569311165879e-01  9.9998902508612730e-01  9.9999344094137610e-01  9.9998965127041139e-01  9.9997991944590059e-01  9.9999041356598750e-01  9.9998605781400240e-01  9.9997492357478213e-01  9.9992563163482551e-01  9.6129727823646571e-01  8.5587456277268159e-01  7.4849349993798020e-01  6.3438881648461287e-01  5.1974817655335570e-01  4.1068207151352520e-01  3.1238708600393611e-01  2.2859551717052776e-01  1.6104063256066656e-01  1.0940654290171091e-01  7.2248179897746373e-02  4.6686069860995771e-02  2.8598941172438438e-02  1.6303856068084974e-02  9.3128280481448358e-03  4.7103013686300129e-03  1.9226055514255382e-03  3.7359030633553992e-04  1.1751591815334550e-04  7.9908046626221718e-05  7.2459329565053543e-05  7.8436751507058141e-05  1.1106733579461286e-04  3.1656219672673776e-04  1.6908907135143834e-03  4.2517967503932549e-03  8.5240749853840343e-03  1.5045642796247821e-02  2.5515138679171746e-02  4.2977396137840969e-02  7.0287542775754316e-02  1.0829311810128218e-01  1.5974908171433641e-01  2.2713781947811842e-01  3.1146609750551468e-01  4.1066555567483637e-01  5.2063193986205636e-01  6.3623134763713418e-01  7.5166212325603354e-01  8.5920255614554641e-01  9.7064718318432497e-01  9.9992264916053897e-01  9.9997231476630277e-01  9.9998485543317073e-01  9.9998978988054954e-01  9.9998487678582326e-01  9.9978555992659035e-01  9.9995687530985944e-01  9.9995444667041267e-01  9.9993730229941780e-01  9.9986289512669768e-01  9.8196427476343873e-01  9.0842698125273924e-01  8.2978251407055925e-01  7.3425525232731503e-01  6.3205245875533111e-01  5.2940674525608311e-01  4.3258540859099281e-01  3.4637174700940243e-01  2.7362257435975568e-01  2.1523268094798015e-01  1.7028808952859173e-01  1.3671014547027474e-01  1.1249460036978098e-01  9.5737496514986586e-02  8.4083183180912791e-02  7.5776002453895153e-02  7.0118528012041173e-02  6.6345222239452148e-02  6.3828489629653942e-02  6.2328566850665776e-02  6.1809766489349736e-02  6.2127239540017774e-02  6.3364321646272453e-02  6.5799773282349205e-02  6.9629441778655737e-02  7.5192134736183136e-02  8.3370837890589411e-02  9.5238061208656036e-02  1.1238258516138454e-01  1.3661549732496225e-01  1.6971766545191103e-01  2.1433744644940428e-01  2.7304550720720611e-01  3.4639878389636281e-01  4.3327918871839194e-01  5.3077776315596736e-01  6.3429721310153142e-01  7.3760602183179813e-01  8.3368205286524366e-01  9.1644462896524681e-01  9.8192955546044247e-01  9.9982872510406295e-01  9.9992872232078400e-01  9.9995439199805436e-01  9.9996273185344953e-01  9.9993977150824898e-01  3.3928082933694009e-01  6.4702448563423776e-01  8.0609010254728175e-01  9.0167717817180704e-01  9.4201323326118191e-01  9.4466521117174418e-01  9.2233189015080486e-01  8.7651898504406955e-01  8.0785734475481941e-01  7.2650345989279053e-01  6.3890420000340020e-01  5.5228176065944223e-01  4.722778020