<?xml version="1.0"?>
<VTKFile type="UnstructuredGrid"  version="0.1"  >
<UnstructuredGrid>
<Piece  NumberOfPoints="2601" NumberOfCells="5000">
<Points>
<DataArray  type="Float64"  NumberOfComponents="3"  format="ascii">0 0 0  0.03 0 0  0.06 0 0  0.09 0 0  0.12 0 0  0.15 0 0  0.18 0 0  0.21 0 0  0.24 0 0  0.27 0 0  0.3 0 0  0.33 0 0  0.36 0 0  0.39 0 0  0.42 0 0  0.45 0 0  0.48 0 0  0.51 0 0  0.54 0 0  0.57 0 0  0.6 0 0  0.63 0 0  0.66 0 0  0.6899999999999999 0 0  0.72 0 0  0.75 0 0  0.78 0 0  0.8100000000000001 0 0  0.84 0 0  0.87 0 0  0.9 0 0  0.93 0 0  0.96 0 0  0.99 0 0  1.02 0 0  1.05 0 0  1.08 0 0  1.11 0 0  1.14 0 0  1.17 0 0  1.2 0 0  1.23 0 0  1.26 0 0  1.29 0 0  1.32 0 0  1.35 0 0  1.38 0 0  1.41 0 0  1.44 0 0  1.47 0 0  1.5 0 0  0 0.02 0  0.03 0.02 0  0.06 0.02 0  0.09 0.02 0  0.12 0.02 0  0.15 0.02 0  0.18 0.02 0  0.21 0.02 0  0.24 0.02 0  0.27 0.02 0  0.3 0.02 0  0.33 0.02 0  0.36 0.02 0  0.39 0.02 0  0.42 0.02 0  0.45 0.02 0  0.48 0.02 0  0.51 0.02 0  0.54 0.02 0  0.57 0.02 0  0.6 0.02 0  0.63 0.02 0  0.66 0.02 0  0.6899999999999999 0.02 0  0.72 0.02 0  0.75 0.02 0  0.78 0.02 0  0.8100000000000001 0.02 0  0.84 0.02 0  0.87 0.02 0  0.9 0.02 0  0.93 0.02 0  0.96 0.02 0  0.99 0.02 0  1.02 0.02 0  1.05 0.02 0  1.08 0.02 0  1.11 0.02 0  1.14 0.02 0  1.17 0.02 0  1.2 0.02 0  1.23 0.02 0  1.26 0.02 0  1.29 0.02 0  1.32 0.02 0  1.35 0.02 0  1.38 0.02 0  1.41 0.02 0  1.44 0.02 0  1.47 0.02 0  1.5 0.02 0  0 0.04 0  0.03 0.04 0  0.06 0.04 0  0.09 0.04 0  0.12 0.04 0  0.15 0.04 0  0.18 0.04 0  0.21 0.04 0  0.24 0.04 0  0.27 0.04 0  0.3 0.04 0  0.33 0.04 0  0.36 0.04 0  0.39 0.04 0  0.42 0.04 0  0.45 0.04 0  0.48 0.04 0  0.51 0.04 0  0.54 0.04 0  0.57 0.04 0  0.6 0.04 0  0.63 0.04 0  0.66 0.04 0  0.6899999999999999 0.04 0  0.72 0.04 0  0.75 0.04 0  0.78 0.04 0  0.8100000000000001 0.04 0  0.84 0.04 0  0.87 0.04 0  0.9 0.04 0  0.93 0.04 0  0.96 0.04 0  0.99 0.04 0  1.02 0.04 0  1.05 0.04 0  1.08 0.04 0  1.11 0.04 0  1.14 0.04 0  1.17 0.04 0  1.2 0.04 0  1.23 0.04 0  1.26 0.04 0  1.29 0.04 0  1.32 0.04 0  1.35 0.04 0  1.38 0.04 0  1.41 0.04 0  1.44 0.04 0  1.47 0.04 0  1.5 0.04 0  0 0.06 0  0.03 0.06 0  0.06 0.06 0  0.09 0.06 0  0.12 0.06 0  0.15 0.06 0  0.18 0.06 0  0.21 0.06 0  0.24 0.06 0  0.27 0.06 0  0.3 0.06 0  0.33 0.06 0  0.36 0.06 0  0.39 0.06 0  0.42 0.06 0  0.45 0.06 0  0.48 0.06 0  0.51 0.06 0  0.54 0.06 0  0.57 0.06 0  0.6 0.06 0  0.63 0.06 0  0.66 0.06 0  0.6899999999999999 0.06 0  0.72 0.06 0  0.75 0.06 0  0.78 0.06 0  0.8100000000000001 0.06 0  0.84 0.06 0  0.87 0.06 0  0.9 0.06 0  0.93 0.06 0  0.96 0.06 0  0.99 0.06 0  1.02 0.06 0  1.05 0.06 0  1.08 0.06 0  1.11 0.06 0  1.14 0.06 0  1.17 0.06 0  1.2 0.06 0  1.23 0.06 0  1.26 0.06 0  1.29 0.06 0  1.32 0.06 0  1.35 0.06 0  1.38 0.06 0  1.41 0.06 0  1.44 0.06 0  1.47 0.06 0  1.5 0.06 0  0 0.08 0  0.03 0.08 0  0.06 0.08 0  0.09 0.08 0  0.12 0.08 0  0.15 0.08 0  0.18 0.08 0  0.21 0.08 0  0.24 0.08 0  0.27 0.08 0  0.3 0.08 0  0.33 0.08 0  0.36 0.08 0  0.39 0.08 0  0.42 0.08 0  0.45 0.08 0  0.48 0.08 0  0.51 0.08 0  0.54 0.08 0  0.57 0.08 0  0.6 0.08 0  0.63 0.08 0  0.66 0.08 0  0.6899999999999999 0.08 0  0.72 0.08 0  0.75 0.08 0  0.78 0.08 0  0.8100000000000001 0.08 0  0.84 0.08 0  0.87 0.08 0  0.9 0.08 0  0.93 0.08 0  0.96 0.08 0  0.99 0.08 0  1.02 0.08 0  1.05 0.08 0  1.08 0.08 0  1.11 0.08 0  1.14 0.08 0  1.17 0.08 0  1.2 0.08 0  1.23 0.08 0  1.26 0.08 0  1.29 0.08 0  1.32 0.08 0  1.35 0.08 0  1.38 0.08 0  1.41 0.08 0  1.44 0.08 0  1.47 0.08 0  1.5 0.08 0  0 0.1 0  0.03 0.1 0  0.06 0.1 0  0.09 0.1 0  0.12 0.1 0  0.15 0.1 0  0.18 0.1 0  0.21 0.1 0  0.24 0.1 0  0.27 0.1 0  0.3 0.1 0  0.33 0.1 0  0.36 0.1 0  0.39 0.1 0  0.42 0.1 0  0.45 0.1 0  0.48 0.1 0  0.51 0.1 0  0.54 0.1 0  0.57 0.1 0  0.6 0.1 0  0.63 0.1 0  0.66 0.1 0  0.6899999999999999 0.1 0  0.72 0.1 0  0.75 0.1 0  0.78 0.1 0  0.8100000000000001 0.1 0  0.84 0.1 0  0.87 0.1 0  0.9 0.1 0  0.93 0.1 0  0.96 0.1 0  0.99 0.1 0  1.02 0.1 0  1.05 0.1 0  1.08 0.1 0  1.11 0.1 0  1.14 0.1 0  1.17 0.1 0  1.2 0.1 0  1.23 0.1 0  1.26 0.1 0  1.29 0.1 0  1.32 0.1 0  1.35 0.1 0  1.38 0.1 0  1.41 0.1 0  1.44 0.1 0  1.47 0.1 0  1.5 0.1 0  0 0.12 0  0.03 0.12 0  0.06 0.12 0  0.09 0.12 0  0.12 0.12 0  0.15 0.12 0  0.18 0.12 0  0.21 0.12 0  0.24 0.12 0  0.27 0.12 0  0.3 0.12 0  0.33 0.12 0  0.36 0.12 0  0.39 0.12 0  0.42 0.12 0  0.45 0.12 0  0.48 0.12 0  0.51 0.12 0  0.54 0.12 0  0.57 0.12 0  0.6 0.12 0  0.63 0.12 0  0.66 0.12 0  0.6899999999999999 0.12 0  0.72 0.12 0  0.75 0.12 0  0.78 0.12 0  0.8100000000000001 0.12 0  0.84 0.12 0  0.87 0.12 0  0.9 0.12 0  0.93 0.12 0  0.96 0.12 0  0.99 0.12 0  1.02 0.12 0  1.05 0.12 0  1.08 0.12 0  1.11 0.12 0  1.14 0.12 0  1.17 0.12 0  1.2 0.12 0  1.23 0.12 0  1.26 0.12 0  1.29 0.12 0  1.32 0.12 0  1.35 0.12 0  1.38 0.12 0  1.41 0.12 0  1.44 0.12 0  1.47 0.12 0  1.5 0.12 0  0 0.14 0  0.03 0.14 0  0.06 0.14 0  0.09 0.14 0  0.12 0.14 0  0.15 0.14 0  0.18 0.14 0  0.21 0.14 0  0.24 0.14 0  0.27 0.14 0  0.3 0.14 0  0.33 0.14 0  0.36 0.14 0  0.39 0.14 0  0.42 0.14 0  0.45 0.14 0  0.48 0.14 0  0.51 0.14 0  0.54 0.14 0  0.57 0.14 0  0.6 0.14 0  0.63 0.14 0  0.66 0.14 0  0.6899999999999999 0.14 0  0.72 0.14 0  0.75 0.14 0  0.78 0.14 0  0.8100000000000001 0.14 0  0.84 0.14 0  0.87 0.14 0  0.9 0.14 0  0.93 0.14 0  0.96 0.14 0  0.99 0.14 0  1.02 0.14 0  1.05 0.14 0  1.08 0.14 0  1.11 0.14 0  1.14 0.14 0  1.17 0.14 0  1.2 0.14 0  1.23 0.14 0  1.26 0.14 0  1.29 0.14 0  1.32 0.14 0  1.35 0.14 0  1.38 0.14 0  1.41 0.14 0  1.44 0.14 0  1.47 0.14 0  1.5 0.14 0  0 0.16 0  0.03 0.16 0  0.06 0.16 0  0.09 0.16 0  0.12 0.16 0  0.15 0.16 0  0.18 0.16 0  0.21 0.16 0  0.24 0.16 0  0.27 0.16 0  0.3 0.16 0  0.33 0.16 0  0.36 0.16 0  0.39 0.16 0  0.42 0.16 0  0.45 0.16 0  0.48 0.16 0  0.51 0.16 0  0.54 0.16 0  0.57 0.16 0  0.6 0.16 0  0.63 0.16 0  0.66 0.16 0  0.6899999999999999 0.16 0  0.72 0.16 0  0.75 0.16 0  0.78 0.16 0  0.8100000000000001 0.16 0  0.84 0.16 0  0.87 0.16 0  0.9 0.16 0  0.93 0.16 0  0.96 0.16 0  0.99 0.16 0  1.02 0.16 0  1.05 0.16 0  1.08 0.16 0  1.11 0.16 0  1.14 0.16 0  1.17 0.16 0  1.2 0.16 0  1.23 0.16 0  1.26 0.16 0  1.29 0.16 0  1.32 0.16 0  1.35 0.16 0  1.38 0.16 0  1.41 0.16 0  1.44 0.16 0  1.47 0.16 0  1.5 0.16 0  0 0.18 0  0.03 0.18 0  0.06 0.18 0  0.09 0.18 0  0.12 0.18 0  0.15 0.18 0  0.18 0.18 0  0.21 0.18 0  0.24 0.18 0  0.27 0.18 0  0.3 0.18 0  0.33 0.18 0  0.36 0.18 0  0.39 0.18 0  0.42 0.18 0  0.45 0.18 0  0.48 0.18 0  0.51 0.18 0  0.54 0.18 0  0.57 0.18 0  0.6 0.18 0  0.63 0.18 0  0.66 0.18 0  0.6899999999999999 0.18 0  0.72 0.18 0  0.75 0.18 0  0.78 0.18 0  0.8100000000000001 0.18 0  0.84 0.18 0  0.87 0.18 0  0.9 0.18 0  0.93 0.18 0  0.96 0.18 0  0.99 0.18 0  1.02 0.18 0  1.05 0.18 0  1.08 0.18 0  1.11 0.18 0  1.14 0.18 0  1.17 0.18 0  1.2 0.18 0  1.23 0.18 0  1.26 0.18 0  1.29 0.18 0  1.32 0.18 0  1.35 0.18 0  1.38 0.18 0  1.41 0.18 0  1.44 0.18 0  1.47 0.18 0  1.5 0.18 0  0 0.2 0  0.03 0.2 0  0.06 0.2 0  0.09 0.2 0  0.12 0.2 0  0.15 0.2 0  0.18 0.2 0  0.21 0.2 0  0.24 0.2 0  0.27 0.2 0  0.3 0.2 0  0.33 0.2 0  0.36 0.2 0  0.39 0.2 0  0.42 0.2 0  0.45 0.2 0  0.48 0.2 0  0.51 0.2 0  0.54 0.2 0  0.57 0.2 0  0.6 0.2 0  0.63 0.2 0  0.66 0.2 0  0.6899999999999999 0.2 0  0.72 0.2 0  0.75 0.2 0  0.78 0.2 0  0.8100000000000001 0.2 0  0.84 0.2 0  0.87 0.2 0  0.9 0.2 0  0.93 0.2 0  0.96 0.2 0  0.99 0.2 0  1.02 0.2 0  1.05 0.2 0  1.08 0.2 0  1.11 0.2 0  1.14 0.2 0  1.17 0.2 0  1.2 0.2 0  1.23 0.2 0  1.26 0.2 0  1.29 0.2 0  1.32 0.2 0  1.35 0.2 0  1.38 0.2 0  1.41 0.2 0  1.44 0.2 0  1.47 0.2 0  1.5 0.2 0  0 0.22 0  0.03 0.22 0  0.06 0.22 0  0.09 0.22 0  0.12 0.22 0  0.15 0.22 0  0.18 0.22 0  0.21 0.22 0  0.24 0.22 0  0.27 0.22 0  0.3 0.22 0  0.33 0.22 0  0.36 0.22 0  0.39 0.22 0  0.42 0.22 0  0.45 0.22 0  0.48 0.22 0  0.51 0.22 0  0.54 0.22 0  0.57 0.22 0  0.6 0.22 0  0.63 0.22 0  0.66 0.22 0  0.6899999999999999 0.22 0  0.72 0.22 0  0.75 0.22 0  0.78 0.22 0  0.8100000000000001 0.22 0  0.84 0.22 0  0.87 0.22 0  0.9 0.22 0  0.93 0.22 0  0.96 0.22 0  0.99 0.22 0  1.02 0.22 0  1.05 0.22 0  1.08 0.22 0  1.11 0.22 0  1.14 0.22 0  1.17 0.22 0  1.2 0.22 0  1.23 0.22 0  1.26 0.22 0  1.29 0.22 0  1.32 0.22 0  1.35 0.22 0  1.38 0.22 0  1.41 0.22 0  1.44 0.22 0  1.47 0.22 0  1.5 0.22 0  0 0.24 0  0.03 0.24 0  0.06 0.24 0  0.09 0.24 0  0.12 0.24 0  0.15 0.24 0  0.18 0.24 0  0.21 0.24 0  0.24 0.24 0  0.27 0.24 0  0.3 0.24 0  0.33 0.24 0  0.36 0.24 0  0.39 0.24 0  0.42 0.24 0  0.45 0.24 0  0.48 0.24 0  0.51 0.24 0  0.54 0.24 0  0.57 0.24 0  0.6 0.24 0  0.63 0.24 0  0.66 0.24 0  0.6899999999999999 0.24 0  0.72 0.24 0  0.75 0.24 0  0.78 0.24 0  0.8100000000000001 0.24 0  0.84 0.24 0  0.87 0.24 0  0.9 0.24 0  0.93 0.24 0  0.96 0.24 0  0.99 0.24 0  1.02 0.24 0  1.05 0.24 0  1.08 0.24 0  1.11 0.24 0  1.14 0.24 0  1.17 0.24 0  1.2 0.24 0  1.23 0.24 0  1.26 0.24 0  1.29 0.24 0  1.32 0.24 0  1.35 0.24 0  1.38 0.24 0  1.41 0.24 0  1.44 0.24 0  1.47 0.24 0  1.5 0.24 0  0 0.26 0  0.03 0.26 0  0.06 0.26 0  0.09 0.26 0  0.12 0.26 0  0.15 0.26 0  0.18 0.26 0  0.21 0.26 0  0.24 0.26 0  0.27 0.26 0  0.3 0.26 0  0.33 0.26 0  0.36 0.26 0  0.39 0.26 0  0.42 0.26 0  0.45 0.26 0  0.48 0.26 0  0.51 0.26 0  0.54 0.26 0  0.57 0.26 0  0.6 0.26 0  0.63 0.26 0  0.66 0.26 0  0.6899999999999999 0.26 0  0.72 0.26 0  0.75 0.26 0  0.78 0.26 0  0.8100000000000001 0.26 0  0.84 0.26 0  0.87 0.26 0  0.9 0.26 0  0.93 0.26 0  0.96 0.26 0  0.99 0.26 0  1.02 0.26 0  1.05 0.26 0  1.08 0.26 0  1.11 0.26 0  1.14 0.26 0  1.17 0.26 0  1.2 0.26 0  1.23 0.26 0  1.26 0.26 0  1.29 0.26 0  1.32 0.26 0  1.35 0.26 0  1.38 0.26 0  1.41 0.26 0  1.44 0.26 0  1.47 0.26 0  1.5 0.26 0  0 0.28 0  0.03 0.28 0  0.06 0.28 0  0.09 0.28 0  0.12 0.28 0  0.15 0.28 0  0.18 0.28 0  0.21 0.28 0  0.24 0.28 0  0.27 0.28 0  0.3 0.28 0  0.33 0.28 0  0.36 0.28 0  0.39 0.28 0  0.42 0.28 0  0.45 0.28 0  0.48 0.28 0  0.51 0.28 0  0.54 0.28 0  0.57 0.28 0  0.6 0.28 0  0.63 0.28 0  0.66 0.28 0  0.6899999999999999 0.28 0  0.72 0.28 0  0.75 0.28 0  0.78 0.28 0  0.8100000000000001 0.28 0  0.84 0.28 0  0.87 0.28 0  0.9 0.28 0  0.93 0.28 0  0.96 0.28 0  0.99 0.28 0  1.02 0.28
[...]
<PointData  Scalars="ControlVisualisation"> 
<DataArray  type="Float64"  Name="ControlVisualisation"  format="ascii">1.9137735481603358e-05  1.2768649685535537e-05  1.2816338621522133e-05  1.2914351266330779e-05  1.3065312170880116e-05  1.3253134401560353e-05  1.3451871009843758e-05  1.3636896600356996e-05  1.3791530780242196e-05  1.3908320281282408e-05  1.3986767651661967e-05  1.4030474227161114e-05  1.4045171096081485e-05  1.4037452166868241e-05  1.4013843132985340e-05  1.3980174394857708e-05  1.3941281453534775e-05  1.3900950525415621e-05  1.3861993692859376e-05  1.3826381314137566e-05  1.3795402519276153e-05  1.3769837283710615e-05  1.3750119917081097e-05  1.3736473587337153e-05  1.3729004666441577e-05  1.3727758218535553e-05  1.3732743718337893e-05  1.3743939471959039e-05  1.3761277157474831e-05  1.3784599710799464e-05  1.3813582383610753e-05  1.3847611750196666e-05  1.3885629257509177e-05  1.3925956699551482e-05  1.3966124789550705e-05  1.4002725172924535e-05  1.4031318587406514e-05  1.4046459178883875e-05  1.4041915348805306e-05  1.4011144071001447e-05  1.3947955254172935e-05  1.3847532268812342e-05  1.3708280646062238e-05  1.3534541357295334e-05  1.3339286823935436e-05  1.3143902098903199e-05  1.2974163425764359e-05  1.2852244519170245e-05  1.2784640950317369e-05  1.2758089794621239e-05  3.8280368168437922e-05  1.2761253876082028e-05  6.3871989073349702e-06  6.4333539059072579e-06  6.5359732631258156e-06  6.7048591841399190e-06  6.9294083420299842e-06  7.1834740437121911e-06  7.4357118158611665e-06  7.6592134906823256e-06  7.8371038091704337e-06  7.9627725695639572e-06  8.0373425583807020e-06  8.0670500885895574e-06  8.0610024493152812e-06  8.0291689875768315e-06  7.9808547954457923e-06  7.9238726481663949e-06  7.8643006801279580e-06  7.8065721367020655e-06  7.7537100183054228e-06  7.7076174741022421e-06  7.6693805892599099e-06  7.6395482340142900e-06  7.6183583505810914e-06  7.6058953345072699e-06  7.6021826770729579e-06  7.6072273687471830e-06  7.6210322456227729e-06  7.6435817114305234e-06  7.6747921221872669e-06  7.7144090497679001e-06  7.7618362841728124e-06  7.8158961098639119e-06  7.8745397032566741e-06  7.9345383777431052e-06  7.9911899662305057e-06  8.0381038164325285e-06  8.0671861154417694e-06  8.0690438942270560e-06  8.0339173553081250e-06  7.9530691188727549e-06  7.8205537297053967e-06  7.6358822254732367e-06  7.4069797383498970e-06  7.1526378474627262e-06  6.9007335993061036e-06  6.6814698291339439e-06  6.5198091913608502e-06  6.4251262299432100e-06  6.3845050573050857e-06  1.2756571623055511e-05  1.2775600722026682e-05  6.4017516291556906e-06  6.4615946894127784e-06  6.5922297076672456e-06  6.8028288485884727e-06  7.0786947085527283e-06  7.3893137940234835e-06  7.6973666687589313e-06  7.9701011477438586e-06  8.1870045354629625e-06  8.3395909619130934e-06  8.4283794396100587e-06  8.4605632577383484e-06  8.4476032737866833e-06  8.4024040279481421e-06  8.3370220974813154e-06  8.2614895966817840e-06  8.1835241390470562e-06  8.1086771301421480e-06  8.0406511230523727e-06  7.9816879261939678e-06  7.9329815672662502e-06  7.8950639391718077e-06  7.8681121138277921e-06  7.8521527770956166e-06  7.8471735263557275e-06  7.8531710922323574e-06  7.8701648669051511e-06  7.8981854977192473e-06  7.9372240836259838e-06  7.9871110037828595e-06  8.0472961509061743e-06  8.1165264243301153e-06  8.1924531828026676e-06  8.2712138611749012e-06  8.3470268559726119e-06  8.4118730019985262e-06  8.4554157634669837e-06  8.4655581679626244e-06  8.4297040960841387e-06  8.3370178849861454e-06  8.1801941181105337e-06  7.9585782526608820e-06  7.6810859220500804e-06  7.3702917583343895e-06  7.0609438621336437e-06  6.7876559507474387e-06  6.5795765790500380e-06  6.4534366460312895e-06  6.3984310626422888e-06  1.2766919254929361e-05  1.2789602552641180e-05  6.4226997922145082e-06  6.5063349890856863e-06  6.6699650706958056e-06  6.9099275769767092e-06  7.2051038040554498e-06  7.5258805847436510e-06  7.8334182234882264e-06  8.0965495581884817e-06  8.3000512989563770e-06  8.4387310018831753e-06  8.5136719738096849e-06  8.5322065135525531e-06  8.5064118954037502e-06  8.4498178464171609e-06  8.3747326090651958e-06  8.2911594807482815e-06  8.2067026402817350e-06  8.1267864948967108e-06  8.0549537706745463e-06  7.9932367741493012e-06  7.9425950553068931e-06  7.9033490304883022e-06  7.8755232670061224e-06  7.8590571316301733e-06  7.8538995304365278e-06  7.8600370401584221e-06  7.8775004794840964e-06  7.9063652358858724e-06  7.9467226543054840e-06  7.9985728381814733e-06  8.0615925298750557e-06  8.1347719404435284e-06  8.2159805212387724e-06  8.3015295856482963e-06  8.3857862544432851e-06  8.4608151950552686e-06  8.5161589334206043e-06  8.5393006675295757e-06  8.5171814301848592e-06  8.4396111523811863e-06  8.2983645495855760e-06  8.0904740617122545e-06  7.8213167948022305e-06  7.5083190492441519e-06  7.1884598882662200e-06  6.8948284542625672e-06  6.6532864584242018e-06  6.4912559851519830e-06  6.4150815010911546e-06  1.2781488657481041e-05  1.2787085696974305e-05  6.4486374188005897e-06  6.5963236563568339e-06  6.8313563502963927e-06  7.1093448122107267e-06  7.4165198485013148e-06  7.7394371403865956e-06  8.0304652674171950e-06  8.2649412952748823e-06  8.4396959485352189e-06  8.5529619019819965e-06  8.6045077335146195e-06  8.6011268566762691e-06  8.5558714850439486e-06  8.4830591298807843e-06  8.3949550074178372e-06  8.3011291436414483e-06  8.2087823987328732e-06  8.1230326236462415e-06  8.0471159895100357e-06  7.9826962485408540e-06  7.9303367023752996e-06  7.8900159386244969e-06  7.8615283363285593e-06  7.8446956052669582e-06  7.8394230986193899e-06  7.8456869902136621e-06  7.8635265569857773e-06  7.8930666974526744e-06  7.9345342005191240e-06  7.9881842086370445e-06  8.0540552044187759e-06  8.1315377398960658e-06  8.2188611430463365e-06  8.3126676949472776e-06  8.4077047814838797e-06  8.4963404229605961e-06  8.5682717071427756e-06  8.6105941238164086e-06  8.6102973448471262e-06  8.5572792959160672e-06  8.4436643454526111e-06  8.2649130437232495e-06  8.0269920367604534e-06  7.7244428801527520e-06  7.4030584847391888e-06  7.1027353613190812e-06  6.8159272565119112e-06  6.5722599931265592e-06  6.4291512545625288e-06  1.2786939376915211e-05  1.2790434216926642e-05  6.5187119981675021e-06  6.9624853762474430e-06  7.5785216687111991e-06  7.8721620435524182e-06  7.9977621588526107e-06  8.1624475870620934e-06  8.3421214939419405e-06  8.5022488071543220e-06  8.6281235418642906e-06  8.7059405190225455e-06  8.7252204587684658e-06  8.6910271213568320e-06  8.6187743046295415e-06  8.5241234378189450e-06  8.4188521596507692e-06  8.3116069066585982e-06  8.2089716555515894e-06  8.1156975424520927e-06  8.0346424435282665e-06  7.9669490114459382e-06  7.9125903886623879e-06  7.8710444590027072e-06  7.8417934419950116e-06  7.8245257468757340e-06  7.8191154652806262e-06  7.8255343037430125e-06  7.8438176241934112e-06  7.8741263686915317e-06  7.9168467185487245e-06  7.9725855691248977e-06  8.0419132902176101e-06  8.1248127219977095e-06  8.2199955010818528e-06  8.3245543612723734e-06  8.4336713133053874e-06  8.5403224234213827e-06  8.6351717285041073e-06  8.7040541067484057e-06  8.7331896154710950e-06  8.7088055128984521e-06  8.6505267468676885e-06  8.5362780219999187e-06  8.4151563987102396e-06  8.2620455008981863e-06  8.1446503767340325e-06  7.9794760985468113e-06  7.3990708889052032e-06  6.7792208459018914e-06  6.4511413140392114e-06  1.2775985259365165e-05  1.3254902409241583e-05  7.0523941939026822e-06  9.6587303752940612e-06  1.6971638729473867e-05  2.2058296054326397e-05  1.5508221018799817e-05  1.1126156757943628e-05  9.3607435706987068e-06  8.9059663646132344e-06  8.8845342641301509e-06  8.9056149954295891e-06  8.8810539400841652e-06  8.8043027080822154e-06  8.6959638457482997e-06  8.5735867246228192e-06  8.4470270375350465e-06  8.3231491399347903e-06  8.2077299939071342e-06  8.1052080806572540e-06  8.0180487935773466e-06  7.9466778818785631e-06  7.8901979688687531e-06  7.8473706846156468e-06  7.8172822954023435e-06  7.7995051360621049e-06  7.7939280254798860e-06  7.8005361370918313e-06  7.8193311190929912e-06  7.8504592564417777e-06  7.8944606983200428e-06  7.9524041146593734e-06  8.0256287819821347e-06  8.1149970654560070e-06  8.2198130781892787e-06  8.3376262799579610e-06  8.4640491023540600e-06  8.5939861626777354e-06  8.7188431901481406e-06  8.8214522667382769e-06  8.8914527319777311e-06  8.9138793334773901e-06  8.9930917722996715e-06  9.1331173696075061e-06  9.8278605468263799e-06  1.1331330669390883e-05  1.4767097405645559e-05  2.1723504239808103e-05  1.7879134067030829e-05  1.0249613867380701e-05  6.9283873356829761e-06  1.2829576543241360e-05  1.4412422035241966e-05  1.5751725917148036e-05  2.9591918176219343e-02  5.7045931740661124e-02  5.2982103447412179e-02  3.3278531431407632e-02  1.0398428954995717e-02  3.0882269616307037e-05  1.1737404203388916e-05  9.5128233434152929e-06  9.1952496732262693e-06  9.0834657086193065e-06  8.9422621968516361e-06  8.7862333824164472e-06  8.6304857454993505e-06  8.4788262261035787e-06  8.3350840569694866e-06  8.2042422452551949e-06  8.0907132956413182e-06  7.9966724939025527e-06  7.9215373467581310e-06  7.8630954996736419e-06  7.8190843692942548e-06  7.7881205183188835e-06  7.7697433226530969e-06  7.7639610582274373e-06  7.7708107713036067e-06  7.7902022574597225e-06  7.8221477366388835e-06  7.8672781489387666e-06  7.9272468790300777e-06  8.0044954332454710e-06  8.1012384755605041e-06  8.2174973271350838e-06  8.3510449163377646e-06  8.4983886120566585e-06  8.6567053359964081e-06  8.8165299452801010e-06  8.9750261539566974e-06  9.1184862902463418e-06  9.2719136616181693e-06  1.0092084524199486e-05  1.2221152752072490e-05  2.4196886887292983e-05  7.5897325274897828e-03  2.9005652247332096e-02  4.9947587790282084e-02  5.7459698699196454e-02  4.1199704377598963e-02  1.6265743890868600e-05  1.4356059517729799e-05  3.1704192217136298e-05  8.9854812127139957e-02  2.0993567987140255e-01  2.1426881361989686e-01  1.8038873472918535e-01  1.3260012758535225e-01  8.2139253363060397e-02  3.7683800083953202e-02  5.7727338029068924e-03  1.6362011811452217e-05  1.0308315258377321e-05  9.4089252574150769e-06  9.1113350775333127e-06  8.8872389080542113e-06  8.6939288791440982e-06  8.5137321017226468e-06  8.3467573917039661e-06  8.1974860012406550e-06  8.0710117021126213e-06  7.9695809451167022e-06  7.8910873149418160e-06  7.8312504608084448e-06  7.7863327312664432e-06  7.7544495304990529e-06  7.7353183424347593e-06  7.7292659344903966e-06  7.7364522575136081e-06  7.7565971118005831e-06  7.7893368253320363e-06  7.8352224856794755e-06  7.8965960710667866e-06  7.9774924954624942e-06  8.0823719655925078e-06  8.2123810254893348e-06  8.3639926352354840e-06  8.5361304928390424e-06  8.7241384504290776e-06  8.9397702344582539e-06  9.2101095321443780e-06  9.6037786400221057e-06  1.0799942953560665e-05  1.6332595705741600e-05  2.5712320268953147e-03  3.0932094155308856e-02  7.5974863579625102e-02  1.2830240402499413e-01  1.7548284051612753e-01  2.0845269776588071e-01  2.0797468597653096e-01  1.1423626278471373e-01  2.3320743196355122e-05  4.0093507049232341e-01  4.6430581645829905e-01  4.9582737866583737e-01  4.2301936189920675e-01  3.5489065660515945e-01  2.7485288565782823e-01  1.9377378110675245e-01  1.1963649803919131e-01  5.9878380613688394e-02  1.6882349006500298e-02  2.9121815350629188e-05  1.1332147926081804e-05  9.4253609455010561e-06  9.0108275347291238e-06  8.7664796880828617e-06  8.5520881006884864e-06  8.3579636073475064e-06  8.1863729922599463e-06  8.0444573460706212e-06  7.9355532328496270e-06  7.8548962435662559e-06  7.7948188843457459e-06  7.7494556007695150e-06  7.7165026571376068e-06  7.6963093075551466e-06  7.6898639133825503e-06  7.6975667509039549e-06  7.7188078995261562e-06  7.7523892709371157e-06  7.7984015111111704e-06  7.8599172613553724e-06  7.9433928143687656e-06  8.0568080661231416e-06  8.2041867474659406e-06  8.3751353753792452e-06  8.5803775795441697e-06  8.8046995387561289e-06  9.1427770921147199e-06  9.8906236519060306e-06  1.1806839484481423e-05  2.3666004620384926e-05  1.1723527029406624e-02  5.3530983760188992e-02  1.1622051910470049e-01  1.8975286202092365e-01  2.7058350912119628e-01  3.5077905484496263e-01  4.1780687699601932e-01  4.4817096987786870e-01  4.6928101293832852e-01  3.5715849079500267e-01  9.9992162269242868e-01  9.9062230906663318e-01  7.8630511689522042e-01  6.6344026861127703e-01  5.5674230663263069e-01  4.4313971463395707e-01  3.3542914632283594e-01  2.3490024431718989e-01  1.4682092118936182e-01  7.6660237628518382e-02  2.7318497332263183e-02  1.9142092691184232e-04  1.2616052469162389e-05  9.4653829104145677e-06  8.8941147548933013e-06  8.6010862548244172e-06  8.3715394567860044e-06  8.1705628338804979e-06  8.0089285412837626e-06  7.8932418469328734e-06  7.8128204052731632e-06  7.7544476088907692e-06  7.7092231082532588e-06  7.6747227914090963e-06  7.6528592601033864e-06  7.6458225298880425e-06  7.6543475167587303e-06  7.6774094472984415e-06  7.7121494116069203e-06  7.7574000719282249e-06  7.8170241606469395e-06  7.9010331673868289e-06  8.0221369323704062e-06  8.1966846998698854e-06  8.3924778290718018e-06  8.6541770518353718e-06  8.9947360222476090e-06  1.0120277582357065e-05  1.3254147076373282e-05  5.0082333718239951e-05  2.1518857428943834e-02  7.1527207429108230e-02  1.4386973066000747e-01  2.3106594776607853e-01  3.3163294237766527e-01  4.4149001980868846e-01  5.4402127762080554e-01  6.5575702088382304e-01  8.0497201765288107e-01  9.9930967060081732e-01  9.9976748200816923e-01  9.9998426084273395e-01  9.9998624882061515e-01  9.9995099977211732e-01  9.0651686682428834e-01  7.4434693092544213e-01  6.1525264404397617e-01  4.8864993667682516e-01  3.6895891525954816e-01  2.5988743649023766e-01  1.6591224680623226e-01  9.1174644850551170e-02  3.8447855997703131e-02  5.4834140396295824e-03  1.6179120570154964e-05  9.9743450085212498e-06  8.8066807090836370e-06  8.4326144367577411e-06  8.1645815723258724e-06  7.9685942365219926e-06  7.8458914152950711e-06  7.7681799358173844e-06  7.7137445688003210e-06  7.6688447435679393e-06  7.6313698329783833e-06  7.6066751339904228e-06  7.5987410024345737e-06  7.6084790547647620e-06  7.6351023879582791e-06  7.6724910557245834e-06  7.7166820846997313e-06  7.7730431565639531e-06  7.8563164246823316e-06  7.9870327432531212e-06  8.2193028001370849e-06  8.4918594534703694e-06  9.0907257625397685e-06  1.0529465393070295e-05  1.6012113657027812e-05  2.2337258934830360e-03  3.2606134359536292e-02  8.7368343481691910e-02  1.6315831396473615e-01  2.5698019958997337e-01  3.6639048669678270e-01  4.8809757907810875e-01  6.0963660563287503e-01  7.4097531300525188e-01  9.3989016042958351e-01  9.9996766189513719e-01  9.9998775168877374e-01  9.9997841522567865e-01  9.9998959801031273e-01  9.9999307967632489e-01  9.9998613582669538e-01  9.9994662157289393e-01  9.1108583975232804e-01  7.6760415173389751e-01  6.3625166007613498e-01  5.0818651151768124e-01  3.8671255107524516e-01  2.7648799649105271e-01  1.8216364326431508e-01  1.0663589324650262e-01  5.1977267975164651e-02  1.6006668710436059e-02  4.0891772973808989e-05  1.2726047757455171e-05  9.5031414354284091e-06  8.4949991353206790e-06  8.0857931910232774e-06  7.8923188367035582e-06  7.7860919673037130e-06  7.7199924598307077e-06  7.6659222202225751e-06  7.6186492644285870e-06  7.5880170636471872e-06  7.5786967120362207e-06  7.5909066849620487e-06  7.6265409408590308e-06  7.6753990618519586e-06  7.7316886282782468e-06  7.8092784846291314e-06  7.9380485094796169e-06  8.1775958502497284e-06  8.8065572884841384e-06  9.9344586030881746e-06  1.2584015624568490e-05  3.1515900654645840e-05  1.1608969300890356e-02  4.7153313676727676e-02  1.0430368711390482e-01  1.7945053454972579e-01  2.7418917546483712e-01  3.8515566280335112e-01  5.0812278542351874e-01  6.3611755146213489e-01  7.6453655191970149e-01  9.3911891211501164e-01  9.9995841927441453e-01  9.9998654339996196e-01  9.9999306833084212e-01  9.9998877577879497e-01  9.9998898976814887e-01  9.9999360218990729e-01  9.9998940184578144e-01  9.9997584834816255e-01  9.9984306523351796e-01  8.8352073441124579e-01  7.6313865802562308e-01  6.3851398664172554e-01  5.1532457418412325e-01  3.9794508152009589e-01  2.9168784566398737e-01  2.0085473795103670e-01  1.2769523537939145e-01  7.3215717140883707e-02  3.5884969963226182e-02  1.1549461287843128e-02  6.1300003537172968e-05  1.6556622289853082e-05  1.1663306425374424e-05  1.0117687106354611e-05  9.3766719273324501e-06  8.9695970834775057e-06  8.7031138830282666e-06  8.5291630994546141e-06  8.4453754711219585e-06  8.4267264335976527e-06  8.4651705890466772e-06  8.5815401411995709e-06  8.7587342323840119e-06  9.0035154283691665e-06  9.4101263804353287e-06  1.0139518355978563e-05  1.1607093058877606e-05  1.5980467752482631e-05  4.8621542064458574e-05  8.6215375205746757e-03  3.1029868192682556e-02  7.0181029094386727e-02  1.2598494565210747e-01  1.9870042826727138e-01  2.8988939889577536e-01  3.9730827375957894e-01  5.1557279683223056e-01  6.4047906083516948e-01  7.6239972108935361e-01  8.9708246034073169e-01  9.9988877816251553e-01  9.9997569319946333e-01  9.9998902516289045e-01  9.9999344099202125e-01  9.9998965134539086e-01  9.9997991976907874e-01  9.9999041373814368e-01  9.9998605816048980e-01  9.9997492420461520e-01  9.9992564174373366e-01  9.6125749648022651e-01  8.5588905558029948e-01  7.4849703269958578e-01  6.3439732442956054e-01  5.1974167047026665e-01  4.1065656821922192e-01  3.1236148647693995e-01  2.2859408332150888e-01  1.6105622953903909e-01  1.0939475428257101e-01  7.2247469888752205e-02  4.6695970869440259e-02  2.8543686114847717e-02  1.6352888595255199e-02  9.2681531656502829e-03  4.7296132352778542e-03  1.9226451771225542e-03  3.7479884401772206e-04  1.1784193471051741e-04  8.0055918220602816e-05  7.2580126954521290e-05  7.8572519368600799e-05  1.1132897941583021e-04  3.1725686330976013e-04  1.7083685452044639e-03  4.3325540392001862e-03  8.4970741537930689e-03  1.5087281277357398e-02  2.5507611553765890e-02  4.3000948285224744e-02  7.0303970232678661e-02  1.0829511095251781e-01  1.5976444855036706e-01  2.2712466924340591e-01  3.1144854694189206e-01  4.1066168028816030e-01  5.2064414229269407e-01  6.3624077535423362e-01  7.5167886289140862e-01  8.5920454804798019e-01  9.7060441353430238e-01  9.9992265642394151e-01  9.9997231530433128e-01  9.9998485575685814e-01  9.9998979004725685e-01  9.9998487695668503e-01  9.9978556031404053e-01  9.9995687698216118e-01  9.9995444999531802e-01  9.9993730725547725e-01  9.9986293579748620e-01  9.8191943414585781e-01  9.0841411058724852e-01  8.2978567682807591e-01  7.3426266602116119e-01  6.3206174783047553e-01  5.2940143201392709e-01  4.3256026149016480e-01  3.4633990775387813e-01  2.7360649012619798e-01  2.1523998102188036e-01  1.7031188961312094e-01  1.3672723896363478e-01  1.1248183699330348e-01  9.5732349931276731e-02  8.4086402854062769e-02  7.5772527046994831e-02  7.0125968214077530e-02  6.6347027458015531e-02  6.3832265937239355e-02  6.2336812805613109e-02  6.1823939371734735e-02  6.2140471729845145e-02  6.3371110519398186e-02  6.5801329919365201e-02  6.9630446653811004e-02  7.5203693446153061e-02  8.3377959609604591e-02  9.5247542687570297e-02  1.1239530857417281e-01  1.3664030350162665e-01  1.6975705356307766e-01  2.1433443690470419e-01  2.7302770597921627e-01  3.4638211090496479e-01  4.3327654344176214e-01  5.3079182505701406e-01  6.3431213173616052e-01  7.3761335507157422e-01  8.3367391621638653e-01  9.1643761950379754e-01  9.8188624985880202e-01  9.9982878568963052e-01  9.9992872439665315e-01  9.9995439432241073e-01  9.9996273386507095e-01  9.9993977462242511e-01  3.3927820762771027e-01  6.4703939734854221e-01  8.0610619257064142e-01  9.0169170453188030e-01  9.4202978519174962e-01  9.4464438472375345e-01  9.2232210221224598e-01  8.7652670130199017e-01  8.0784934551457399e-01  7.2651364046429501e-01  6.3891363650011312e-01  5.5227775755137942e-01  4.722561833