<?xml version="1.0"?>
<VTKFile type="UnstructuredGrid"  version="0.1"  >
<UnstructuredGrid>
<Piece  NumberOfPoints="2601" NumberOfCells="5000">
<Points>
<DataArray  type="Float64"  NumberOfComponents="3"  format="ascii">0 0 0  0.03 0 0  0.06 0 0  0.09 0 0  0.12 0 0  0.15 0 0  0.18 0 0  0.21 0 0  0.24 0 0  0.27 0 0  0.3 0 0  0.33 0 0  0.36 0 0  0.39 0 0  0.42 0 0  0.45 0 0  0.48 0 0  0.51 0 0  0.54 0 0  0.57 0 0  0.6 0 0  0.63 0 0  0.66 0 0  0.6899999999999999 0 0  0.72 0 0  0.75 0 0  0.78 0 0  0.8100000000000001 0 0  0.84 0 0  0.87 0 0  0.9 0 0  0.93 0 0  0.96 0 0  0.99 0 0  1.02 0 0  1.05 0 0  1.08 0 0  1.11 0 0  1.14 0 0  1.17 0 0  1.2 0 0  1.23 0 0  1.26 0 0  1.29 0 0  1.32 0 0  1.35 0 0  1.38 0 0  1.41 0 0  1.44 0 0  1.47 0 0  1.5 0 0  0 0.02 0  0.03 0.02 0  0.06 0.02 0  0.09 0.02 0  0.12 0.02 0  0.15 0.02 0  0.18 0.02 0  0.21 0.02 0  0.24 0.02 0  0.27 0.02 0  0.3 0.02 0  0.33 0.02 0  0.36 0.02 0  0.39 0.02 0  0.42 0.02 0  0.45 0.02 0  0.48 0.02 0  0.51 0.02 0  0.54 0.02 0  0.57 0.02 0  0.6 0.02 0  0.63 0.02 0  0.66 0.02 0  0.6899999999999999 0.02 0  0.72 0.02 0  0.75 0.02 0  0.78 0.02 0  0.8100000000000001 0.02 0  0.84 0.02 0  0.87 0.02 0  0.9 0.02 0  0.93 0.02 0  0.96 0.02 0  0.99 0.02 0  1.02 0.02 0  1.05 0.02 0  1.08 0.02 0  1.11 0.02 0  1.14 0.02 0  1.17 0.02 0  1.2 0.02 0  1.23 0.02 0  1.26 0.02 0  1.29 0.02 0  1.32 0.02 0  1.35 0.02 0  1.38 0.02 0  1.41 0.02 0  1.44 0.02 0  1.47 0.02 0  1.5 0.02 0  0 0.04 0  0.03 0.04 0  0.06 0.04 0  0.09 0.04 0  0.12 0.04 0  0.15 0.04 0  0.18 0.04 0  0.21 0.04 0  0.24 0.04 0  0.27 0.04 0  0.3 0.04 0  0.33 0.04 0  0.36 0.04 0  0.39 0.04 0  0.42 0.04 0  0.45 0.04 0  0.48 0.04 0  0.51 0.04 0  0.54 0.04 0  0.57 0.04 0  0.6 0.04 0  0.63 0.04 0  0.66 0.04 0  0.6899999999999999 0.04 0  0.72 0.04 0  0.75 0.04 0  0.78 0.04 0  0.8100000000000001 0.04 0  0.84 0.04 0  0.87 0.04 0  0.9 0.04 0  0.93 0.04 0  0.96 0.04 0  0.99 0.04 0  1.02 0.04 0  1.05 0.04 0  1.08 0.04 0  1.11 0.04 0  1.14 0.04 0  1.17 0.04 0  1.2 0.04 0  1.23 0.04 0  1.26 0.04 0  1.29 0.04 0  1.32 0.04 0  1.35 0.04 0  1.38 0.04 0  1.41 0.04 0  1.44 0.04 0  1.47 0.04 0  1.5 0.04 0  0 0.06 0  0.03 0.06 0  0.06 0.06 0  0.09 0.06 0  0.12 0.06 0  0.15 0.06 0  0.18 0.06 0  0.21 0.06 0  0.24 0.06 0  0.27 0.06 0  0.3 0.06 0  0.33 0.06 0  0.36 0.06 0  0.39 0.06 0  0.42 0.06 0  0.45 0.06 0  0.48 0.06 0  0.51 0.06 0  0.54 0.06 0  0.57 0.06 0  0.6 0.06 0  0.63 0.06 0  0.66 0.06 0  0.6899999999999999 0.06 0  0.72 0.06 0  0.75 0.06 0  0.78 0.06 0  0.8100000000000001 0.06 0  0.84 0.06 0  0.87 0.06 0  0.9 0.06 0  0.93 0.06 0  0.96 0.06 0  0.99 0.06 0  1.02 0.06 0  1.05 0.06 0  1.08 0.06 0  1.11 0.06 0  1.14 0.06 0  1.17 0.06 0  1.2 0.06 0  1.23 0.06 0  1.26 0.06 0  1.29 0.06 0  1.32 0.06 0  1.35 0.06 0  1.38 0.06 0  1.41 0.06 0  1.44 0.06 0  1.47 0.06 0  1.5 0.06 0  0 0.08 0  0.03 0.08 0  0.06 0.08 0  0.09 0.08 0  0.12 0.08 0  0.15 0.08 0  0.18 0.08 0  0.21 0.08 0  0.24 0.08 0  0.27 0.08 0  0.3 0.08 0  0.33 0.08 0  0.36 0.08 0  0.39 0.08 0  0.42 0.08 0  0.45 0.08 0  0.48 0.08 0  0.51 0.08 0  0.54 0.08 0  0.57 0.08 0  0.6 0.08 0  0.63 0.08 0  0.66 0.08 0  0.6899999999999999 0.08 0  0.72 0.08 0  0.75 0.08 0  0.78 0.08 0  0.8100000000000001 0.08 0  0.84 0.08 0  0.87 0.08 0  0.9 0.08 0  0.93 0.08 0  0.96 0.08 0  0.99 0.08 0  1.02 0.08 0  1.05 0.08 0  1.08 0.08 0  1.11 0.08 0  1.14 0.08 0  1.17 0.08 0  1.2 0.08 0  1.23 0.08 0  1.26 0.08 0  1.29 0.08 0  1.32 0.08 0  1.35 0.08 0  1.38 0.08 0  1.41 0.08 0  1.44 0.08 0  1.47 0.08 0  1.5 0.08 0  0 0.1 0  0.03 0.1 0  0.06 0.1 0  0.09 0.1 0  0.12 0.1 0  0.15 0.1 0  0.18 0.1 0  0.21 0.1 0  0.24 0.1 0  0.27 0.1 0  0.3 0.1 0  0.33 0.1 0  0.36 0.1 0  0.39 0.1 0  0.42 0.1 0  0.45 0.1 0  0.48 0.1 0  0.51 0.1 0  0.54 0.1 0  0.57 0.1 0  0.6 0.1 0  0.63 0.1 0  0.66 0.1 0  0.6899999999999999 0.1 0  0.72 0.1 0  0.75 0.1 0  0.78 0.1 0  0.8100000000000001 0.1 0  0.84 0.1 0  0.87 0.1 0  0.9 0.1 0  0.93 0.1 0  0.96 0.1 0  0.99 0.1 0  1.02 0.1 0  1.05 0.1 0  1.08 0.1 0  1.11 0.1 0  1.14 0.1 0  1.17 0.1 0  1.2 0.1 0  1.23 0.1 0  1.26 0.1 0  1.29 0.1 0  1.32 0.1 0  1.35 0.1 0  1.38 0.1 0  1.41 0.1 0  1.44 0.1 0  1.47 0.1 0  1.5 0.1 0  0 0.12 0  0.03 0.12 0  0.06 0.12 0  0.09 0.12 0  0.12 0.12 0  0.15 0.12 0  0.18 0.12 0  0.21 0.12 0  0.24 0.12 0  0.27 0.12 0  0.3 0.12 0  0.33 0.12 0  0.36 0.12 0  0.39 0.12 0  0.42 0.12 0  0.45 0.12 0  0.48 0.12 0  0.51 0.12 0  0.54 0.12 0  0.57 0.12 0  0.6 0.12 0  0.63 0.12 0  0.66 0.12 0  0.6899999999999999 0.12 0  0.72 0.12 0  0.75 0.12 0  0.78 0.12 0  0.8100000000000001 0.12 0  0.84 0.12 0  0.87 0.12 0  0.9 0.12 0  0.93 0.12 0  0.96 0.12 0  0.99 0.12 0  1.02 0.12 0  1.05 0.12 0  1.08 0.12 0  1.11 0.12 0  1.14 0.12 0  1.17 0.12 0  1.2 0.12 0  1.23 0.12 0  1.26 0.12 0  1.29 0.12 0  1.32 0.12 0  1.35 0.12 0  1.38 0.12 0  1.41 0.12 0  1.44 0.12 0  1.47 0.12 0  1.5 0.12 0  0 0.14 0  0.03 0.14 0  0.06 0.14 0  0.09 0.14 0  0.12 0.14 0  0.15 0.14 0  0.18 0.14 0  0.21 0.14 0  0.24 0.14 0  0.27 0.14 0  0.3 0.14 0  0.33 0.14 0  0.36 0.14 0  0.39 0.14 0  0.42 0.14 0  0.45 0.14 0  0.48 0.14 0  0.51 0.14 0  0.54 0.14 0  0.57 0.14 0  0.6 0.14 0  0.63 0.14 0  0.66 0.14 0  0.6899999999999999 0.14 0  0.72 0.14 0  0.75 0.14 0  0.78 0.14 0  0.8100000000000001 0.14 0  0.84 0.14 0  0.87 0.14 0  0.9 0.14 0  0.93 0.14 0  0.96 0.14 0  0.99 0.14 0  1.02 0.14 0  1.05 0.14 0  1.08 0.14 0  1.11 0.14 0  1.14 0.14 0  1.17 0.14 0  1.2 0.14 0  1.23 0.14 0  1.26 0.14 0  1.29 0.14 0  1.32 0.14 0  1.35 0.14 0  1.38 0.14 0  1.41 0.14 0  1.44 0.14 0  1.47 0.14 0  1.5 0.14 0  0 0.16 0  0.03 0.16 0  0.06 0.16 0  0.09 0.16 0  0.12 0.16 0  0.15 0.16 0  0.18 0.16 0  0.21 0.16 0  0.24 0.16 0  0.27 0.16 0  0.3 0.16 0  0.33 0.16 0  0.36 0.16 0  0.39 0.16 0  0.42 0.16 0  0.45 0.16 0  0.48 0.16 0  0.51 0.16 0  0.54 0.16 0  0.57 0.16 0  0.6 0.16 0  0.63 0.16 0  0.66 0.16 0  0.6899999999999999 0.16 0  0.72 0.16 0  0.75 0.16 0  0.78 0.16 0  0.8100000000000001 0.16 0  0.84 0.16 0  0.87 0.16 0  0.9 0.16 0  0.93 0.16 0  0.96 0.16 0  0.99 0.16 0  1.02 0.16 0  1.05 0.16 0  1.08 0.16 0  1.11 0.16 0  1.14 0.16 0  1.17 0.16 0  1.2 0.16 0  1.23 0.16 0  1.26 0.16 0  1.29 0.16 0  1.32 0.16 0  1.35 0.16 0  1.38 0.16 0  1.41 0.16 0  1.44 0.16 0  1.47 0.16 0  1.5 0.16 0  0 0.18 0  0.03 0.18 0  0.06 0.18 0  0.09 0.18 0  0.12 0.18 0  0.15 0.18 0  0.18 0.18 0  0.21 0.18 0  0.24 0.18 0  0.27 0.18 0  0.3 0.18 0  0.33 0.18 0  0.36 0.18 0  0.39 0.18 0  0.42 0.18 0  0.45 0.18 0  0.48 0.18 0  0.51 0.18 0  0.54 0.18 0  0.57 0.18 0  0.6 0.18 0  0.63 0.18 0  0.66 0.18 0  0.6899999999999999 0.18 0  0.72 0.18 0  0.75 0.18 0  0.78 0.18 0  0.8100000000000001 0.18 0  0.84 0.18 0  0.87 0.18 0  0.9 0.18 0  0.93 0.18 0  0.96 0.18 0  0.99 0.18 0  1.02 0.18 0  1.05 0.18 0  1.08 0.18 0  1.11 0.18 0  1.14 0.18 0  1.17 0.18 0  1.2 0.18 0  1.23 0.18 0  1.26 0.18 0  1.29 0.18 0  1.32 0.18 0  1.35 0.18 0  1.38 0.18 0  1.41 0.18 0  1.44 0.18 0  1.47 0.18 0  1.5 0.18 0  0 0.2 0  0.03 0.2 0  0.06 0.2 0  0.09 0.2 0  0.12 0.2 0  0.15 0.2 0  0.18 0.2 0  0.21 0.2 0  0.24 0.2 0  0.27 0.2 0  0.3 0.2 0  0.33 0.2 0  0.36 0.2 0  0.39 0.2 0  0.42 0.2 0  0.45 0.2 0  0.48 0.2 0  0.51 0.2 0  0.54 0.2 0  0.57 0.2 0  0.6 0.2 0  0.63 0.2 0  0.66 0.2 0  0.6899999999999999 0.2 0  0.72 0.2 0  0.75 0.2 0  0.78 0.2 0  0.8100000000000001 0.2 0  0.84 0.2 0  0.87 0.2 0  0.9 0.2 0  0.93 0.2 0  0.96 0.2 0  0.99 0.2 0  1.02 0.2 0  1.05 0.2 0  1.08 0.2 0  1.11 0.2 0  1.14 0.2 0  1.17 0.2 0  1.2 0.2 0  1.23 0.2 0  1.26 0.2 0  1.29 0.2 0  1.32 0.2 0  1.35 0.2 0  1.38 0.2 0  1.41 0.2 0  1.44 0.2 0  1.47 0.2 0  1.5 0.2 0  0 0.22 0  0.03 0.22 0  0.06 0.22 0  0.09 0.22 0  0.12 0.22 0  0.15 0.22 0  0.18 0.22 0  0.21 0.22 0  0.24 0.22 0  0.27 0.22 0  0.3 0.22 0  0.33 0.22 0  0.36 0.22 0  0.39 0.22 0  0.42 0.22 0  0.45 0.22 0  0.48 0.22 0  0.51 0.22 0  0.54 0.22 0  0.57 0.22 0  0.6 0.22 0  0.63 0.22 0  0.66 0.22 0  0.6899999999999999 0.22 0  0.72 0.22 0  0.75 0.22 0  0.78 0.22 0  0.8100000000000001 0.22 0  0.84 0.22 0  0.87 0.22 0  0.9 0.22 0  0.93 0.22 0  0.96 0.22 0  0.99 0.22 0  1.02 0.22 0  1.05 0.22 0  1.08 0.22 0  1.11 0.22 0  1.14 0.22 0  1.17 0.22 0  1.2 0.22 0  1.23 0.22 0  1.26 0.22 0  1.29 0.22 0  1.32 0.22 0  1.35 0.22 0  1.38 0.22 0  1.41 0.22 0  1.44 0.22 0  1.47 0.22 0  1.5 0.22 0  0 0.24 0  0.03 0.24 0  0.06 0.24 0  0.09 0.24 0  0.12 0.24 0  0.15 0.24 0  0.18 0.24 0  0.21 0.24 0  0.24 0.24 0  0.27 0.24 0  0.3 0.24 0  0.33 0.24 0  0.36 0.24 0  0.39 0.24 0  0.42 0.24 0  0.45 0.24 0  0.48 0.24 0  0.51 0.24 0  0.54 0.24 0  0.57 0.24 0  0.6 0.24 0  0.63 0.24 0  0.66 0.24 0  0.6899999999999999 0.24 0  0.72 0.24 0  0.75 0.24 0  0.78 0.24 0  0.8100000000000001 0.24 0  0.84 0.24 0  0.87 0.24 0  0.9 0.24 0  0.93 0.24 0  0.96 0.24 0  0.99 0.24 0  1.02 0.24 0  1.05 0.24 0  1.08 0.24 0  1.11 0.24 0  1.14 0.24 0  1.17 0.24 0  1.2 0.24 0  1.23 0.24 0  1.26 0.24 0  1.29 0.24 0  1.32 0.24 0  1.35 0.24 0  1.38 0.24 0  1.41 0.24 0  1.44 0.24 0  1.47 0.24 0  1.5 0.24 0  0 0.26 0  0.03 0.26 0  0.06 0.26 0  0.09 0.26 0  0.12 0.26 0  0.15 0.26 0  0.18 0.26 0  0.21 0.26 0  0.24 0.26 0  0.27 0.26 0  0.3 0.26 0  0.33 0.26 0  0.36 0.26 0  0.39 0.26 0  0.42 0.26 0  0.45 0.26 0  0.48 0.26 0  0.51 0.26 0  0.54 0.26 0  0.57 0.26 0  0.6 0.26 0  0.63 0.26 0  0.66 0.26 0  0.6899999999999999 0.26 0  0.72 0.26 0  0.75 0.26 0  0.78 0.26 0  0.8100000000000001 0.26 0  0.84 0.26 0  0.87 0.26 0  0.9 0.26 0  0.93 0.26 0  0.96 0.26 0  0.99 0.26 0  1.02 0.26 0  1.05 0.26 0  1.08 0.26 0  1.11 0.26 0  1.14 0.26 0  1.17 0.26 0  1.2 0.26 0  1.23 0.26 0  1.26 0.26 0  1.29 0.26 0  1.32 0.26 0  1.35 0.26 0  1.38 0.26 0  1.41 0.26 0  1.44 0.26 0  1.47 0.26 0  1.5 0.26 0  0 0.28 0  0.03 0.28 0  0.06 0.28 0  0.09 0.28 0  0.12 0.28 0  0.15 0.28 0  0.18 0.28 0  0.21 0.28 0  0.24 0.28 0  0.27 0.28 0  0.3 0.28 0  0.33 0.28 0  0.36 0.28 0  0.39 0.28 0  0.42 0.28 0  0.45 0.28 0  0.48 0.28 0  0.51 0.28 0  0.54 0.28 0  0.57 0.28 0  0.6 0.28 0  0.63 0.28 0  0.66 0.28 0  0.6899999999999999 0.28 0  0.72 0.28 0  0.75 0.28 0  0.78 0.28 0  0.8100000000000001 0.28 0  0.84 0.28 0  0.87 0.28 0  0.9 0.28 0  0.93 0.28 0  0.96 0.28 0  0.99 0.28 0  1.02 0.28
[...]
<PointData  Scalars="ControlVisualisation"> 
<DataArray  type="Float64"  Name="ControlVisualisation"  format="ascii">3.4331088666713369e-05  1.2977322377857436e-05  1.3091753057365178e-05  1.3327255167478879e-05  1.3692867220124424e-05  1.4153985988011653e-05  1.4649950397695698e-05  1.5118874502601464e-05  1.5515706984484210e-05  1.5818958522722474e-05  1.6026287851452999e-05  1.6145934129967133e-05  1.6190759201421367e-05  1.6175803713455597e-05  1.6117052371351784e-05  1.6030004135439381e-05  1.5928237739308072e-05  1.5822545078693307e-05  1.5720786915284662e-05  1.5628251524570113e-05  1.5548223253352756e-05  1.5482569295618281e-05  1.5432249586393881e-05  1.5397710855870697e-05  1.5379155927567885e-05  1.5376701812448864e-05  1.5390452033747890e-05  1.5420505242712832e-05  1.5466907233094209e-05  1.5529537993632411e-05  1.5607913100226128e-05  1.5700863817208195e-05  1.5806058678830828e-05  1.5919340681929805e-05  1.6033924420887102e-05  1.6139634598134217e-05  1.6222632494144388e-05  1.6266295904443658e-05  1.6253379291413417e-05  1.6168328930673604e-05  1.5998350012504906e-05  1.5733642529415612e-05  1.5370771324900987e-05  1.4919797370876856e-05  1.4414611247289249e-05  1.3913320581349282e-05  1.3484015235467749e-05  1.3180991118775924e-05  1.3015871617183278e-05  1.2951734268253274e-05  2.1730391690377411e-04  1.2959597606827626e-05  3.3898195934871172e-06  3.4383029825910865e-06  3.5458365209940020e-06  3.7249368207909524e-06  3.9698136632193635e-06  4.2573809606042865e-06  4.5531281433462711e-06  4.8220098606988212e-06  5.0400921321809458e-06  5.1980358276652026e-06  5.2962326177013715e-06  5.3396532198482049e-06  5.3363578521020000e-06  5.2972484241983406e-06  5.2346648531752921e-06  5.1602047555120091e-06  5.0831086683552035e-06  5.0097663965056037e-06  4.9440550474373103e-06  4.8880042932178923e-06  4.8424587284782907e-06  4.8076106044084624e-06  4.7833770582486222e-06  4.7696349368272443e-06  4.7663430597088023e-06  4.7735909224275977e-06  4.7916066321979545e-06  4.8207388502884575e-06  4.8614079725832265e-06  4.9140044108046351e-06  4.9786868135679244e-06  5.0549971946968215e-06  5.1411969609255529e-06  5.2332867008857381e-06  5.3238502389943388e-06  5.4012909185255820e-06  5.4506677804880754e-06  5.4569132289747921e-06  5.4088100588728307e-06  5.3005041673851610e-06  5.1291659299418087e-06  4.8959245543477264e-06  4.6089153181912168e-06  4.2914456663274269e-06  3.9823033072173717e-06  3.7211087322476934e-06  3.5354025511150945e-06  3.4305062429273656e-06  3.3868362205275262e-06  1.2948119932151381e-05  1.2994343955152125e-05  3.4053258934351751e-06  3.4688516815321716e-06  3.6074526776033906e-06  3.8350751218346356e-06  4.1455873908277045e-06  4.5132895541934908e-06  4.8948858068942227e-06  5.2433093025156647e-06  5.5264932916395250e-06  5.7324495340408971e-06  5.8604662348006598e-06  5.9145291375883305e-06  5.9038166503996761e-06  5.8433785203495636e-06  5.7512699033834087e-06  5.6443506157397450e-06  5.5355982745671287e-06  5.4335699455043121e-06  5.3431545628640194e-06  5.2666788103113735e-06  5.2048999910095871e-06  5.1577663793905501e-06  5.1249408614434562e-06  5.1061135371830747e-06  5.1011505989493038e-06  5.1101441727537697e-06  5.1334161070801004e-06  5.1714986993491724e-06  5.2250832132344580e-06  5.2949092325160264e-06  5.3815378155582503e-06  5.4848811771571649e-06  5.6033158687638371e-06  5.7322633670091284e-06  5.8622870791168050e-06  5.9773489012466532e-06  6.0553837280215078e-06  6.0737222662495156e-06  6.0167453942252570e-06  5.8791856846436346e-06  5.6601603720191551e-06  5.3631673849460553e-06  4.9972225893831434e-06  4.5883611476971197e-06  4.1900959657089568e-06  3.8513474808584596e-06  3.6048061121756424e-06  3.4616804477472602e-06  3.4013982352187715e-06  1.2972955027352106e-05  1.3028386893029005e-05  3.4277708853020102e-06  3.5171858586598159e-06  3.6918043683122482e-06  3.9529205662921325e-06  4.2927914783356491e-06  4.6842521190475607e-06  5.0762351915931603e-06  5.4169121319729832e-06  5.6810661316242673e-06  5.8683549064060406e-06  5.9819418217290678e-06  6.0223128680756896e-06  5.9956288028021037e-06  5.9176083377937994e-06  5.8087693380910049e-06  5.6878476085323948e-06  5.5683901286609962e-06  5.4586493825399974e-06  5.3629043905611593e-06  5.2828604815713669e-06  5.2187362308127815e-06  5.1700600678742650e-06  5.1362148565705637e-06  5.1167409758967391e-06  5.1114491038431703e-06  5.1204316744835445e-06  5.1440478609454622e-06  5.1829092574956904e-06  5.2378474594135210e-06  5.3098407226317024e-06  5.3998676069282568e-06  5.5085468857024567e-06  5.6352708314491009e-06  5.7766515758433902e-06  5.9241257408072312e-06  6.0608235689109911e-06  6.1606088414908498e-06  6.1959728847264112e-06  6.1505943767288388e-06  6.0258541232768772e-06  5.8276161410036930e-06  5.5512130045694556e-06  5.2055297274694514e-06  4.7856562100302594e-06  4.3611110436537451e-06  3.9855843092953622e-06  3.6909744844148607e-06  3.5030923409891542e-06  3.4182398921606474e-06  1.3007276566285599e-05  1.3022256617971784e-05  3.4559963830550289e-06  3.6166140385604636e-06  3.8702060113030164e-06  4.1692647936652323e-06  4.5411610477477248e-06  4.9575835903607562e-06  5.3482668960592528e-06  5.6547395482613996e-06  5.8699274792709368e-06  6.0193676463571625e-06  6.1092618187729526e-06  6.1286719125326584e-06  6.0773808254629101e-06  5.9730884735041765e-06  5.8407874302475373e-06  5.7017565118216030e-06  5.5696458624858620e-06  5.4516505476414853e-06  5.3508470991871769e-06  5.2679167362919017e-06  5.2022486690913358e-06  5.1527455710921361e-06  5.1183949922227684e-06  5.0985502244510548e-06  5.0929689399983836e-06  5.1017539652926285e-06  5.1253079293870967e-06  5.1643308414831088e-06  5.2198179619022500e-06  5.2930228761183360e-06  5.3854552321532466e-06  5.4987651656365744e-06  5.6339380896610778e-06  5.7897531385883542e-06  5.9600063832354697e-06  6.1278832676752316e-06  6.2606202661080182e-06  6.3210819948983886e-06  6.2913468525781918e-06  6.1863770480059203e-06  6.0325076513721102e-06  5.7874585951841161e-06  5.5283103227865972e-06  5.1046996004531684e-06  4.6552695498905481e-06  4.2547937283976003e-06  3.8863212807001063e-06  3.5945527405978057e-06  3.4324527431773026e-06  1.3018788923585046e-05  1.3025694032329713e-05  3.5303426698253104e-06  3.9757958317926932e-06  4.5466568801223110e-06  4.8126318990696711e-06  5.1069995152541476e-06  5.4535380061125236e-06  5.7873685090463478e-06  6.0041763682190663e-06  6.1196549687606103e-06  6.2135807947685372e-06  6.2795109083141213e-06  6.2741088997313697e-06  6.1872628330977885e-06  6.0439575777458936e-06  5.8781779688090287e-06  5.7147455544192876e-06  5.5664311587010074e-06  5.4382675470240568e-06  5.3314823181963076e-06  5.2453583332634198e-06  5.1781536250171639e-06  5.1279045224725543e-06  5.0930779285363048e-06  5.0728229726199644e-06  5.0668713105161099e-06  5.0753585242586767e-06  5.0987362655891704e-06  5.1378007161241579e-06  5.1937390811724183e-06  5.2680825094754934e-06  5.3629114158297098e-06  5.4811900401728858e-06  5.6261725727398473e-06  5.8000157658273698e-06  6.0010258588934218e-06  6.2151463247931641e-06  6.3997890976736282e-06  6.4956810997122451e-06  6.4805920285190962e-06  6.3826641151736420e-06  6.3130936878820834e-06  6.1185089764824322e-06  6.1089291046667951e-06  5.8024089519826934e-06  5.4939090791732907e-06  5.2866634229575371e-06  4.5597392120865702e-06  3.8290315833430441e-06  3.4601341767607368e-06  1.2992337589575408e-05  1.4010850177985476e-05  3.9842612546231405e-06  7.9136569961729773e-06  2.7377318093233698e-05  4.2397741192677554e-05  1.7484396396137388e-05  8.6256548002466371e-06  6.8710891367423487e-06  6.5687975337996168e-06  6.4234965855481567e-06  6.4458876424851189e-06  6.5051547844321989e-06  6.4735695058858135e-06  6.3340394815644858e-06  6.1328713544783189e-06  5.9208949611631997e-06  5.7265336141123753e-06  5.5589280993503191e-06  5.4190852239012293e-06  5.3057113678879261e-06  5.2163924148299588e-06  5.1479211357758877e-06  5.0971593632261427e-06  5.0619253990987650e-06  5.0412042543075946e-06  5.0347799208521910e-06  5.0428585907791724e-06  5.0659325856805071e-06  5.1048816708902916e-06  5.1611280884133570e-06  5.2364327848129126e-06  5.3332469675285111e-06  5.4560622685921210e-06  5.6114889243924927e-06  5.8055382355710243e-06  6.0446904208037245e-06  6.3270800545999753e-06  6.5972057744192103e-06  6.7385186747701822e-06  6.7337334230817931e-06  6.5964649754932103e-06  6.7535906547273525e-06  6.7109548865421738e-06  8.2252534818434220e-06  1.0483847930993690e-05  1.8657608514764559e-05  4.5604121563026442e-05  2.7973120562263011e-05  8.6008832567973379e-06  3.9666452307890411e-06  1.3140679424660656e-05  1.7534150711519801e-05  2.1032120240603537e-05  2.9487843375633205e-02  5.7433133358592410e-02  5.3294340695550342e-02  3.3846597633607561e-02  9.9680021054766657e-03  8.6468498962408852e-05  9.8858796517955821e-06  6.9423252309414778e-06  6.7276617232416231e-06  6.8160245468927138e-06  6.7516870260718193e-06  6.5277005735318991e-06  6.2386347609565693e-06  5.9647404660977382e-06  5.7339208431560207e-06  5.5451746807626138e-06  5.3927878266130341e-06  5.2726811895839739e-06  5.1806713241945592e-06  5.1116599908570767e-06  5.0608752227463642e-06  5.0253558158033893e-06  5.0040832062702920e-06  4.9970616775158166e-06  5.0046067128952775e-06  5.0272255362925002e-06  5.0658136973297913e-06  5.1221414641650174e-06  5.1981850836098830e-06  5.2959618843725497e-06  5.4217718426536753e-06  5.5870109673096741e-06  5.7997504827988610e-06  6.0836455049858781e-06  6.4637243310566774e-06  6.8775078939873604e-06  7.0851606331482665e-06  7.1086320435249668e-06  6.8274936724500813e-06  7.9219821313418915e-06  1.1503035811268503e-05  6.1660803054335326e-05  6.9750162201143674e-03  2.9335648033497926e-02  5.0646598019400739e-02  5.8153326916163303e-02  4.0944848106978363e-02  1.9903135335987143e-05  1.6804819637103018e-05  1.3435522001834150e-04  9.0044312020127235e-02  2.1158767260872907e-01  2.1626602941539114e-01  1.8277793529578179e-01  1.3510014541325460e-01  8.3716561650789889e-02  3.8542806334406557e-02  5.0914740502465503e-03  1.5319235352068963e-05  7.7765978711579918e-06  7.3054755558930439e-06  7.1585532777666480e-06  6.7814085254144264e-06  6.3546951643182270e-06  6.0017329414931413e-06  5.7327760502343204e-06  5.5231535585415414e-06  5.3578427576058850e-06  5.2312562341970186e-06  5.1377207877473068e-06  5.0695477754564657e-06  5.0195402275063795e-06  4.9838283785133704e-06  4.9618236104789120e-06  4.9540471281383537e-06  4.9609205124967188e-06  4.9829719912243249e-06  5.0208041207220515e-06  5.0768611235691157e-06  5.1537796487118926e-06  5.2508627802829192e-06  5.3763818393535090e-06  5.5487300504303413e-06  5.7771904495130351e-06  6.1030540353817792e-06  6.5953851649154516e-06  7.3022489055037847e-06  7.6400231882929213e-06  7.6445949883743348e-06  7.4569920833590176e-06  2.1777539286300896e-05  2.4201866035187107e-03  3.1809883923229976e-02  7.7966979651659996e-02  1.3060543555331677e-01  1.7769780948315722e-01  2.1050211582720096e-01  2.0973405890632496e-01  1.1531706206704552e-01  4.9366190746805844e-05  4.0303696381100318e-01  4.6419072051262145e-01  4.9571953186923184e-01  4.2376508546833896e-01  3.5579893834750592e-01  2.7656526568749235e-01  1.9622730363721452e-01  1.2239316891465905e-01  6.1096193488758749e-02  1.7561630514024186e-02  5.6341591500095115e-05  9.0397917383579999e-06  7.8232997465278471e-06  7.1071789355851107e-06  6.4607065544800869e-06  6.0188891992778984e-06  5.7194594833511652e-06  5.4919112951922399e-06  5.3126218645440640e-06  5.1800166914224154e-06  5.0870545371459858e-06  5.0220763675716974e-06  4.9740032488108715e-06  4.9379528758699480e-06  4.9148188387234033e-06  4.9060903522155064e-06  4.9122084628259229e-06  4.9337050308017401e-06  4.9700775134870314e-06  5.0251875744483513e-06  5.1044329868827005e-06  5.1990574910036049e-06  5.3169043780222874e-06  5.4933868289762638e-06  5.7407797834253945e-06  6.0447627046195931e-06  6.6956478713820064e-06  7.9313523875555259e-06  8.2727072072508005e-06  9.8749568179829113e-06  3.8468780382444482e-05  1.2077272420255393e-02  5.5170532998674943e-02  1.1895399894330516e-01  1.9198721378992931e-01  2.7187977199007385e-01  3.5176253248801098e-01  4.1816571599784552e-01  4.4906408625776023e-01  4.7044348132483027e-01  3.5700595920196981e-01  9.9886227683750706e-01  9.8138748360927253e-01  7.8759383143221762e-01  6.6310113704270401e-01  5.5712054822569623e-01  4.4364703683516743e-01  3.3651323371543468e-01  2.3709035070584414e-01  1.4979345789025761e-01  7.8619253963200908e-02  2.8538587314574690e-02  7.0460083653232225e-04  1.1220068081918403e-05  7.4733710451162097e-06  6.5244605685110032e-06  6.0023442463755065e-06  5.6971118200019712e-06  5.4546191066650283e-06  5.2552097939454704e-06  5.1175976810017079e-06  5.0285415322075516e-06  4.9705542921042690e-06  4.9259893601034705e-06  4.8886824677954227e-06  4.8635538891364581e-06  4.8537945145787778e-06  4.8592358637962831e-06  4.8800688773617345e-06  4.9148575433077000e-06  4.9663285211971908e-06  5.0523453621499213e-06  5.1463364480330430e-06  5.2362520875401213e-06  5.4212702960819859e-06  5.7057375423348773e-06  5.8348494586171881e-06  6.5248302373067946e-06  9.3822156633705705e-06  1.5259097620437122e-05  2.1057522709528719e-04  2.2829290645323942e-02  7.4274238854665026e-02  1.4648412003125991e-01  2.3278184007182154e-01  3.3261602210768187e-01  4.4204415979044653e-01  5.4424129953623046e-01  6.5583520904427761e-01  8.0633981387550069e-01  9.8981205303578768e-01  9.9480716573686656e-01  9.9998404439593769e-01  9.9999067256723140e-01  9.9967947488148157e-01  9.0586232143857148e-01  7.4460560766205852e-01  6.1571241891304129e-01  4.8901618480343018e-01  3.6982536040002906e-01  2.6175430718616405e-01  1.6875369052419414e-01  9.3748238756433358e-02  3.9810669313406141e-02  5.3494087543925171e-03  1.6425035530044435e-05  7.0044178237430683e-06  6.0415099855692152e-06  5.7357734912344806e-06  5.4401148558725363e-06  5.1904518668512514e-06  5.0508844924083388e-06  4.9677644062107824e-06  4.9218837297431003e-06  4.8822842201086555e-06  4.8401082639442381e-06  4.8111778357568815e-06  4.8011054158384630e-06  4.8056491522198582e-06  4.8259162329901623e-06  4.8638274108665715e-06  4.8972317749904938e-06  5.0068221890484511e-06  5.1178634012323575e-06  5.1213573385953666e-06  5.3542079865835255e-06  5.7296461784857181e-06  5.1070668344204481e-06  8.3649531376618581e-06  2.3579836509002609e-05  2.5631284484108827e-03  3.3796338294391472e-02  9.0717029385451300e-02  1.6567298332188926e-01  2.5834615089091761e-01  3.6716625181217039e-01  4.8862643941958173e-01  6.0999467638475746e-01  7.4181516474520715e-01  9.3863977883524852e-01  9.9989441737490503e-01  9.9999329992724828e-01  9.9996228614473737e-01  9.9999438689946496e-01  9.9999819484699293e-01  9.9999064453798236e-01  9.9958757773704754e-01  9.1112938251454401e-01  7.6784263096365390e-01  6.3685661060905696e-01  5.0866595119481095e-01  3.8744064199771794e-01  2.7808053933779064e-01  1.8484428309614737e-01  1.0955044471948949e-01  5.3714075912739044e-02  1.6963847494855043e-02  1.6352788271485359e-04  8.6251201852736862e-06  6.9286108914000865e-06  5.8312626239374410e-06  5.2849666980085740e-06  5.1244887967313488e-06  5.0181839703939031e-06  4.9620444527807687e-06  4.9104247699310400e-06  4.8461468943072385e-06  4.8071346007118798e-06  4.7971603938102279e-06  4.8002718173520550e-06  4.8261489356303598e-06  4.8831721377041158e-06  4.8768855867521634e-06  5.0615516685393529e-06  5.2317627968782518e-06  5.0254054847408093e-06  5.4538171607126755e-06  6.7949984920883440e-06  8.0392006439776106e-06  7.7905378762193559e-05  1.2509769488487896e-02  4.9225305910894607e-02  1.0739135609751442e-01  1.8186616359219970e-01  2.7551070511772235e-01  3.8589727809360369e-01  5.0878960030191545e-01  6.3657068735965761e-01  7.6530326507202207e-01  9.3798714071595735e-01  9.9978276240322128e-01  9.9999103715763604e-01  9.9999817116506695e-01  9.9999325796097716e-01  9.9999358766254609e-01  9.9999848158796034e-01  9.9999556602167161e-01  9.9995584465850751e-01  9.9629554826641753e-01  8.8416804666171445e-01  7.6369853349494343e-01  6.3927879961605294e-01  5.1589146895278792e-01  3.9860320646636233e-01  2.9306290571814508e-01  2.0336675416036912e-01  1.3086713735186425e-01  7.5646232188478005e-02  3.7349209874875243e-02  1.1755783704020792e-02  3.6277378940143684e-04  2.2818232464746641e-05  1.0426538939116653e-05  8.1436125702598772e-06  7.0661382621643211e-06  6.6754459465350564e-06  6.2774758073302298e-06  5.9384418456060383e-06  5.8135000303329151e-06  5.7864409557955611e-06  5.7867193251356181e-06  5.9005586650090914e-06  6.1801133614327068e-06  6.1276233166436111e-06  7.2719324497896821e-06  9.1327688747660672e-06  9.1075667481506405e-06  1.9042651982472932e-05  2.4878167926400485e-04  8.3391780956334934e-03  3.2538963521891326e-02  7.3238166944540870e-02  1.2892561276953002e-01  2.0084508356793160e-01  2.9117714683239460e-01  3.9803884166891335e-01  5.1647661440827919e-01  6.4108362083597015e-01  7.6316616558557415e-01  8.9759474792375538e-01  9.9779280869060760e-01  9.9995432729664069e-01  9.9999518142990929e-01  9.9999840125605577e-01  9.9999445806488130e-01  9.9996877824565766e-01  9.9999658315873052e-01  9.9999128355136091e-01  9.9995203216300543e-01  9.9908640811468630e-01  9.5935026835301396e-01  8.5619119235962171e-01  7.4956463675674379e-01  6.3527134656797968e-01  5.2039982202987900e-01  4.1128615714606681e-01  3.1354012609959836e-01  2.3082102934511253e-01  1.6425740738551609e-01  1.1262588265499743e-01  7.4541118626239675e-02  4.8079705865121773e-02  2.9789009050981377e-02  1.7306547190144992e-02  9.2281695532808166e-03  4.4806835738975736e-03  2.0348092548976428e-03  1.0405222139210917e-03  6.4291949658311668e-04  4.8889660924394387e-04  4.4718833825558180e-04  4.8091411501978475e-04  6.1458287075825263e-04  9.6634719124192268e-04  1.8572470517922430e-03  4.0562291646138917e-03  8.4179747889235775e-03  1.5609015836741551e-02  2.7046323905696681e-02  4.4907440297759726e-02  7.2617110422416628e-02  1.1183705236554885e-01  1.6269821834381226e-01  2.2907043882140810e-01  3.1255095816110690e-01  4.1145694653771153e-01  5.2158707996433384e-01  6.3735617854598048e-01  7.5215566217635665e-01  8.6063647140469290e-01  9.6697268060817698e-01  9.9898934190007471e-01  9.9993678006718112e-01  9.9998902849265792e-01  9.9999601115477854e-01  9.9998567989640863e-01  9.9522270831765691e-01  9.9977306568888780e-01  9.9973025729004661e-01  9.9937114330327670e-01  9.9698188592684478e-01  9.7538201406334879e-01  9.0927422209784903e-01  8.3038975130526005e-01  7.3544811781731612e-01  6.3307644585547951e-01  5.3011099196265588e-01  4.3316527934648252e-01  3.4727888360164433e-01  2.7528815074740404e-01  2.1775179379841630e-01  1.7340925142793970e-01  1.4016628152342059e-01  1.1599097305417662e-01  9.8713498481296194e-02  8.6469677698485736e-02  7.7882632384278547e-02  7.2058969633087791e-02  6.8140268401286327e-02  6.5645549503420594e-02  6.4259418461130743e-02  6.3770598711340359e-02  6.4120386219217285e-02  6.5354123995166602e-02  6.7669632088619716e-02  7.1488265184336791e-02  7.7252149884085436e-02  8.5747113113104401e-02  9.8264246673064409e-02  1.1598001099506824e-01  1.4019665043102000e-01  1.7261586052569086e-01  2.1667234623196455e-01  2.7476026718770208e-01  3.4740327968967399e-01  4.3410940179969387e-01  5.3181281338763620e-01  6.3554600973896458e-01  7.3867383659613872e-01  8.3433157428724791e-01  9.1646666531966248e-01  9.7554564631917795e-01  9.9596272594123170e-01  9.9915626102514177e-01  9.9973121788845398e-01  9.9984854650174859e-01  9.9936951417473774e-01  3.3932855757287589e-01  6.4678146807401304e-01  8.0479762776130903e-01  9.0005366005991905e-01  9.3940224311112253e-01  9.4344024189261433e-01  9.2209066119901339e-01  8.7655082249035676e-01  8.0901662537805186e-01  7.2772970543738935e-01  6.3996523451927134e-01  5.5298446671216828e-01  4.727627138