<?xml version="1.0"?>
<VTKFile type="UnstructuredGrid"  version="0.1"  >
<UnstructuredGrid>
<Piece  NumberOfPoints="2601" NumberOfCells="5000">
<Points>
<DataArray  type="Float64"  NumberOfComponents="3"  format="ascii">0 0 0  0.03 0 0  0.06 0 0  0.09 0 0  0.12 0 0  0.15 0 0  0.18 0 0  0.21 0 0  0.24 0 0  0.27 0 0  0.3 0 0  0.33 0 0  0.36 0 0  0.39 0 0  0.42 0 0  0.45 0 0  0.48 0 0  0.51 0 0  0.54 0 0  0.57 0 0  0.6 0 0  0.63 0 0  0.66 0 0  0.6899999999999999 0 0  0.72 0 0  0.75 0 0  0.78 0 0  0.8100000000000001 0 0  0.84 0 0  0.87 0 0  0.9 0 0  0.93 0 0  0.96 0 0  0.99 0 0  1.02 0 0  1.05 0 0  1.08 0 0  1.11 0 0  1.14 0 0  1.17 0 0  1.2 0 0  1.23 0 0  1.26 0 0  1.29 0 0  1.32 0 0  1.35 0 0  1.38 0 0  1.41 0 0  1.44 0 0  1.47 0 0  1.5 0 0  0 0.02 0  0.03 0.02 0  0.06 0.02 0  0.09 0.02 0  0.12 0.02 0  0.15 0.02 0  0.18 0.02 0  0.21 0.02 0  0.24 0.02 0  0.27 0.02 0  0.3 0.02 0  0.33 0.02 0  0.36 0.02 0  0.39 0.02 0  0.42 0.02 0  0.45 0.02 0  0.48 0.02 0  0.51 0.02 0  0.54 0.02 0  0.57 0.02 0  0.6 0.02 0  0.63 0.02 0  0.66 0.02 0  0.6899999999999999 0.02 0  0.72 0.02 0  0.75 0.02 0  0.78 0.02 0  0.8100000000000001 0.02 0  0.84 0.02 0  0.87 0.02 0  0.9 0.02 0  0.93 0.02 0  0.96 0.02 0  0.99 0.02 0  1.02 0.02 0  1.05 0.02 0  1.08 0.02 0  1.11 0.02 0  1.14 0.02 0  1.17 0.02 0  1.2 0.02 0  1.23 0.02 0  1.26 0.02 0  1.29 0.02 0  1.32 0.02 0  1.35 0.02 0  1.38 0.02 0  1.41 0.02 0  1.44 0.02 0  1.47 0.02 0  1.5 0.02 0  0 0.04 0  0.03 0.04 0  0.06 0.04 0  0.09 0.04 0  0.12 0.04 0  0.15 0.04 0  0.18 0.04 0  0.21 0.04 0  0.24 0.04 0  0.27 0.04 0  0.3 0.04 0  0.33 0.04 0  0.36 0.04 0  0.39 0.04 0  0.42 0.04 0  0.45 0.04 0  0.48 0.04 0  0.51 0.04 0  0.54 0.04 0  0.57 0.04 0  0.6 0.04 0  0.63 0.04 0  0.66 0.04 0  0.6899999999999999 0.04 0  0.72 0.04 0  0.75 0.04 0  0.78 0.04 0  0.8100000000000001 0.04 0  0.84 0.04 0  0.87 0.04 0  0.9 0.04 0  0.93 0.04 0  0.96 0.04 0  0.99 0.04 0  1.02 0.04 0  1.05 0.04 0  1.08 0.04 0  1.11 0.04 0  1.14 0.04 0  1.17 0.04 0  1.2 0.04 0  1.23 0.04 0  1.26 0.04 0  1.29 0.04 0  1.32 0.04 0  1.35 0.04 0  1.38 0.04 0  1.41 0.04 0  1.44 0.04 0  1.47 0.04 0  1.5 0.04 0  0 0.06 0  0.03 0.06 0  0.06 0.06 0  0.09 0.06 0  0.12 0.06 0  0.15 0.06 0  0.18 0.06 0  0.21 0.06 0  0.24 0.06 0  0.27 0.06 0  0.3 0.06 0  0.33 0.06 0  0.36 0.06 0  0.39 0.06 0  0.42 0.06 0  0.45 0.06 0  0.48 0.06 0  0.51 0.06 0  0.54 0.06 0  0.57 0.06 0  0.6 0.06 0  0.63 0.06 0  0.66 0.06 0  0.6899999999999999 0.06 0  0.72 0.06 0  0.75 0.06 0  0.78 0.06 0  0.8100000000000001 0.06 0  0.84 0.06 0  0.87 0.06 0  0.9 0.06 0  0.93 0.06 0  0.96 0.06 0  0.99 0.06 0  1.02 0.06 0  1.05 0.06 0  1.08 0.06 0  1.11 0.06 0  1.14 0.06 0  1.17 0.06 0  1.2 0.06 0  1.23 0.06 0  1.26 0.06 0  1.29 0.06 0  1.32 0.06 0  1.35 0.06 0  1.38 0.06 0  1.41 0.06 0  1.44 0.06 0  1.47 0.06 0  1.5 0.06 0  0 0.08 0  0.03 0.08 0  0.06 0.08 0  0.09 0.08 0  0.12 0.08 0  0.15 0.08 0  0.18 0.08 0  0.21 0.08 0  0.24 0.08 0  0.27 0.08 0  0.3 0.08 0  0.33 0.08 0  0.36 0.08 0  0.39 0.08 0  0.42 0.08 0  0.45 0.08 0  0.48 0.08 0  0.51 0.08 0  0.54 0.08 0  0.57 0.08 0  0.6 0.08 0  0.63 0.08 0  0.66 0.08 0  0.6899999999999999 0.08 0  0.72 0.08 0  0.75 0.08 0  0.78 0.08 0  0.8100000000000001 0.08 0  0.84 0.08 0  0.87 0.08 0  0.9 0.08 0  0.93 0.08 0  0.96 0.08 0  0.99 0.08 0  1.02 0.08 0  1.05 0.08 0  1.08 0.08 0  1.11 0.08 0  1.14 0.08 0  1.17 0.08 0  1.2 0.08 0  1.23 0.08 0  1.26 0.08 0  1.29 0.08 0  1.32 0.08 0  1.35 0.08 0  1.38 0.08 0  1.41 0.08 0  1.44 0.08 0  1.47 0.08 0  1.5 0.08 0  0 0.1 0  0.03 0.1 0  0.06 0.1 0  0.09 0.1 0  0.12 0.1 0  0.15 0.1 0  0.18 0.1 0  0.21 0.1 0  0.24 0.1 0  0.27 0.1 0  0.3 0.1 0  0.33 0.1 0  0.36 0.1 0  0.39 0.1 0  0.42 0.1 0  0.45 0.1 0  0.48 0.1 0  0.51 0.1 0  0.54 0.1 0  0.57 0.1 0  0.6 0.1 0  0.63 0.1 0  0.66 0.1 0  0.6899999999999999 0.1 0  0.72 0.1 0  0.75 0.1 0  0.78 0.1 0  0.8100000000000001 0.1 0  0.84 0.1 0  0.87 0.1 0  0.9 0.1 0  0.93 0.1 0  0.96 0.1 0  0.99 0.1 0  1.02 0.1 0  1.05 0.1 0  1.08 0.1 0  1.11 0.1 0  1.14 0.1 0  1.17 0.1 0  1.2 0.1 0  1.23 0.1 0  1.26 0.1 0  1.29 0.1 0  1.32 0.1 0  1.35 0.1 0  1.38 0.1 0  1.41 0.1 0  1.44 0.1 0  1.47 0.1 0  1.5 0.1 0  0 0.12 0  0.03 0.12 0  0.06 0.12 0  0.09 0.12 0  0.12 0.12 0  0.15 0.12 0  0.18 0.12 0  0.21 0.12 0  0.24 0.12 0  0.27 0.12 0  0.3 0.12 0  0.33 0.12 0  0.36 0.12 0  0.39 0.12 0  0.42 0.12 0  0.45 0.12 0  0.48 0.12 0  0.51 0.12 0  0.54 0.12 0  0.57 0.12 0  0.6 0.12 0  0.63 0.12 0  0.66 0.12 0  0.6899999999999999 0.12 0  0.72 0.12 0  0.75 0.12 0  0.78 0.12 0  0.8100000000000001 0.12 0  0.84 0.12 0  0.87 0.12 0  0.9 0.12 0  0.93 0.12 0  0.96 0.12 0  0.99 0.12 0  1.02 0.12 0  1.05 0.12 0  1.08 0.12 0  1.11 0.12 0  1.14 0.12 0  1.17 0.12 0  1.2 0.12 0  1.23 0.12 0  1.26 0.12 0  1.29 0.12 0  1.32 0.12 0  1.35 0.12 0  1.38 0.12 0  1.41 0.12 0  1.44 0.12 0  1.47 0.12 0  1.5 0.12 0  0 0.14 0  0.03 0.14 0  0.06 0.14 0  0.09 0.14 0  0.12 0.14 0  0.15 0.14 0  0.18 0.14 0  0.21 0.14 0  0.24 0.14 0  0.27 0.14 0  0.3 0.14 0  0.33 0.14 0  0.36 0.14 0  0.39 0.14 0  0.42 0.14 0  0.45 0.14 0  0.48 0.14 0  0.51 0.14 0  0.54 0.14 0  0.57 0.14 0  0.6 0.14 0  0.63 0.14 0  0.66 0.14 0  0.6899999999999999 0.14 0  0.72 0.14 0  0.75 0.14 0  0.78 0.14 0  0.8100000000000001 0.14 0  0.84 0.14 0  0.87 0.14 0  0.9 0.14 0  0.93 0.14 0  0.96 0.14 0  0.99 0.14 0  1.02 0.14 0  1.05 0.14 0  1.08 0.14 0  1.11 0.14 0  1.14 0.14 0  1.17 0.14 0  1.2 0.14 0  1.23 0.14 0  1.26 0.14 0  1.29 0.14 0  1.32 0.14 0  1.35 0.14 0  1.38 0.14 0  1.41 0.14 0  1.44 0.14 0  1.47 0.14 0  1.5 0.14 0  0 0.16 0  0.03 0.16 0  0.06 0.16 0  0.09 0.16 0  0.12 0.16 0  0.15 0.16 0  0.18 0.16 0  0.21 0.16 0  0.24 0.16 0  0.27 0.16 0  0.3 0.16 0  0.33 0.16 0  0.36 0.16 0  0.39 0.16 0  0.42 0.16 0  0.45 0.16 0  0.48 0.16 0  0.51 0.16 0  0.54 0.16 0  0.57 0.16 0  0.6 0.16 0  0.63 0.16 0  0.66 0.16 0  0.6899999999999999 0.16 0  0.72 0.16 0  0.75 0.16 0  0.78 0.16 0  0.8100000000000001 0.16 0  0.84 0.16 0  0.87 0.16 0  0.9 0.16 0  0.93 0.16 0  0.96 0.16 0  0.99 0.16 0  1.02 0.16 0  1.05 0.16 0  1.08 0.16 0  1.11 0.16 0  1.14 0.16 0  1.17 0.16 0  1.2 0.16 0  1.23 0.16 0  1.26 0.16 0  1.29 0.16 0  1.32 0.16 0  1.35 0.16 0  1.38 0.16 0  1.41 0.16 0  1.44 0.16 0  1.47 0.16 0  1.5 0.16 0  0 0.18 0  0.03 0.18 0  0.06 0.18 0  0.09 0.18 0  0.12 0.18 0  0.15 0.18 0  0.18 0.18 0  0.21 0.18 0  0.24 0.18 0  0.27 0.18 0  0.3 0.18 0  0.33 0.18 0  0.36 0.18 0  0.39 0.18 0  0.42 0.18 0  0.45 0.18 0  0.48 0.18 0  0.51 0.18 0  0.54 0.18 0  0.57 0.18 0  0.6 0.18 0  0.63 0.18 0  0.66 0.18 0  0.6899999999999999 0.18 0  0.72 0.18 0  0.75 0.18 0  0.78 0.18 0  0.8100000000000001 0.18 0  0.84 0.18 0  0.87 0.18 0  0.9 0.18 0  0.93 0.18 0  0.96 0.18 0  0.99 0.18 0  1.02 0.18 0  1.05 0.18 0  1.08 0.18 0  1.11 0.18 0  1.14 0.18 0  1.17 0.18 0  1.2 0.18 0  1.23 0.18 0  1.26 0.18 0  1.29 0.18 0  1.32 0.18 0  1.35 0.18 0  1.38 0.18 0  1.41 0.18 0  1.44 0.18 0  1.47 0.18 0  1.5 0.18 0  0 0.2 0  0.03 0.2 0  0.06 0.2 0  0.09 0.2 0  0.12 0.2 0  0.15 0.2 0  0.18 0.2 0  0.21 0.2 0  0.24 0.2 0  0.27 0.2 0  0.3 0.2 0  0.33 0.2 0  0.36 0.2 0  0.39 0.2 0  0.42 0.2 0  0.45 0.2 0  0.48 0.2 0  0.51 0.2 0  0.54 0.2 0  0.57 0.2 0  0.6 0.2 0  0.63 0.2 0  0.66 0.2 0  0.6899999999999999 0.2 0  0.72 0.2 0  0.75 0.2 0  0.78 0.2 0  0.8100000000000001 0.2 0  0.84 0.2 0  0.87 0.2 0  0.9 0.2 0  0.93 0.2 0  0.96 0.2 0  0.99 0.2 0  1.02 0.2 0  1.05 0.2 0  1.08 0.2 0  1.11 0.2 0  1.14 0.2 0  1.17 0.2 0  1.2 0.2 0  1.23 0.2 0  1.26 0.2 0  1.29 0.2 0  1.32 0.2 0  1.35 0.2 0  1.38 0.2 0  1.41 0.2 0  1.44 0.2 0  1.47 0.2 0  1.5 0.2 0  0 0.22 0  0.03 0.22 0  0.06 0.22 0  0.09 0.22 0  0.12 0.22 0  0.15 0.22 0  0.18 0.22 0  0.21 0.22 0  0.24 0.22 0  0.27 0.22 0  0.3 0.22 0  0.33 0.22 0  0.36 0.22 0  0.39 0.22 0  0.42 0.22 0  0.45 0.22 0  0.48 0.22 0  0.51 0.22 0  0.54 0.22 0  0.57 0.22 0  0.6 0.22 0  0.63 0.22 0  0.66 0.22 0  0.6899999999999999 0.22 0  0.72 0.22 0  0.75 0.22 0  0.78 0.22 0  0.8100000000000001 0.22 0  0.84 0.22 0  0.87 0.22 0  0.9 0.22 0  0.93 0.22 0  0.96 0.22 0  0.99 0.22 0  1.02 0.22 0  1.05 0.22 0  1.08 0.22 0  1.11 0.22 0  1.14 0.22 0  1.17 0.22 0  1.2 0.22 0  1.23 0.22 0  1.26 0.22 0  1.29 0.22 0  1.32 0.22 0  1.35 0.22 0  1.38 0.22 0  1.41 0.22 0  1.44 0.22 0  1.47 0.22 0  1.5 0.22 0  0 0.24 0  0.03 0.24 0  0.06 0.24 0  0.09 0.24 0  0.12 0.24 0  0.15 0.24 0  0.18 0.24 0  0.21 0.24 0  0.24 0.24 0  0.27 0.24 0  0.3 0.24 0  0.33 0.24 0  0.36 0.24 0  0.39 0.24 0  0.42 0.24 0  0.45 0.24 0  0.48 0.24 0  0.51 0.24 0  0.54 0.24 0  0.57 0.24 0  0.6 0.24 0  0.63 0.24 0  0.66 0.24 0  0.6899999999999999 0.24 0  0.72 0.24 0  0.75 0.24 0  0.78 0.24 0  0.8100000000000001 0.24 0  0.84 0.24 0  0.87 0.24 0  0.9 0.24 0  0.93 0.24 0  0.96 0.24 0  0.99 0.24 0  1.02 0.24 0  1.05 0.24 0  1.08 0.24 0  1.11 0.24 0  1.14 0.24 0  1.17 0.24 0  1.2 0.24 0  1.23 0.24 0  1.26 0.24 0  1.29 0.24 0  1.32 0.24 0  1.35 0.24 0  1.38 0.24 0  1.41 0.24 0  1.44 0.24 0  1.47 0.24 0  1.5 0.24 0  0 0.26 0  0.03 0.26 0  0.06 0.26 0  0.09 0.26 0  0.12 0.26 0  0.15 0.26 0  0.18 0.26 0  0.21 0.26 0  0.24 0.26 0  0.27 0.26 0  0.3 0.26 0  0.33 0.26 0  0.36 0.26 0  0.39 0.26 0  0.42 0.26 0  0.45 0.26 0  0.48 0.26 0  0.51 0.26 0  0.54 0.26 0  0.57 0.26 0  0.6 0.26 0  0.63 0.26 0  0.66 0.26 0  0.6899999999999999 0.26 0  0.72 0.26 0  0.75 0.26 0  0.78 0.26 0  0.8100000000000001 0.26 0  0.84 0.26 0  0.87 0.26 0  0.9 0.26 0  0.93 0.26 0  0.96 0.26 0  0.99 0.26 0  1.02 0.26 0  1.05 0.26 0  1.08 0.26 0  1.11 0.26 0  1.14 0.26 0  1.17 0.26 0  1.2 0.26 0  1.23 0.26 0  1.26 0.26 0  1.29 0.26 0  1.32 0.26 0  1.35 0.26 0  1.38 0.26 0  1.41 0.26 0  1.44 0.26 0  1.47 0.26 0  1.5 0.26 0  0 0.28 0  0.03 0.28 0  0.06 0.28 0  0.09 0.28 0  0.12 0.28 0  0.15 0.28 0  0.18 0.28 0  0.21 0.28 0  0.24 0.28 0  0.27 0.28 0  0.3 0.28 0  0.33 0.28 0  0.36 0.28 0  0.39 0.28 0  0.42 0.28 0  0.45 0.28 0  0.48 0.28 0  0.51 0.28 0  0.54 0.28 0  0.57 0.28 0  0.6 0.28 0  0.63 0.28 0  0.66 0.28 0  0.6899999999999999 0.28 0  0.72 0.28 0  0.75 0.28 0  0.78 0.28 0  0.8100000000000001 0.28 0  0.84 0.28 0  0.87 0.28 0  0.9 0.28 0  0.93 0.28 0  0.96 0.28 0  0.99 0.28 0  1.02 0.28
[...]
<PointData  Scalars="ControlVisualisation"> 
<DataArray  type="Float64"  Name="ControlVisualisation"  format="ascii">1.9160664684357880e-05  1.2776874401858615e-05  1.2824654308358452e-05  1.2922845776908598e-05  1.3074063878224335e-05  1.3262182943905768e-05  1.3461224781444106e-05  1.3646552628797344e-05  1.3801472261270206e-05  1.3918498143929316e-05  1.3997102381566648e-05  1.4040887359372096e-05  1.4055613171983989e-05  1.4047902436227697e-05  1.4024292024379272e-05  1.3990609992841835e-05  1.3951687074869012e-05  1.3911308559918838e-05  1.3872290024128655e-05  1.3836608118757598e-05  1.3805559313470090e-05  1.3779930454907527e-05  1.3760161122781672e-05  1.3746477718947053e-05  1.3738988151481860e-05  1.3737738117413613e-05  1.3742737571886676e-05  1.3753965447532229e-05  1.3771353836357394e-05  1.3794744956609863e-05  1.3823811148239107e-05  1.3857933272926276e-05  1.3896044412990305e-05  1.3936456213877267e-05  1.3976689169809184e-05  1.4013327561793564e-05  1.4041930096805929e-05  1.4057050423827117e-05  1.4052445554815363e-05  1.4021544327015780e-05  1.3958132541417292e-05  1.3857407603729445e-05  1.3717820852016825e-05  1.3543777324733717e-05  1.3348283453134055e-05  1.3152690019012718e-05  1.2982739469935453e-05  1.2860630760696296e-05  1.2792901813892355e-05  1.2766295070279218e-05  3.8441384320115174e-05  1.2769464336969790e-05  6.3892310859733041e-06  6.4354258093313459e-06  6.5381261743677127e-06  6.7071245704114104e-06  6.9317899515869650e-06  7.1859648653564410e-06  7.4383247969056715e-06  7.6619792025491842e-06  7.8400275059031570e-06  7.9658085099584994e-06  8.0404276392230332e-06  8.0701520573027341e-06  8.0641265558428328e-06  8.0323306928908958e-06  7.9840562416260144e-06  7.9270987753304616e-06  7.8675272107118929e-06  7.8097746980479629e-06  7.7568701854839065e-06  7.7107256415033458e-06  7.6724362329358051e-06  7.6425581593353986e-06  7.6213339620617025e-06  7.6088501686956967e-06  7.6051310205780988e-06  7.6101840489233287e-06  7.6240130482002090e-06  7.6466035259505350e-06  7.6778719227361108e-06  7.7175613286898939e-06  7.7650694263327614e-06  7.8192088137251179e-06  7.8779184607850242e-06  7.9379571686776904e-06  7.9946143574386961e-06  8.0415009036126348e-06  8.0705334659126126e-06  8.0723193874401945e-06  8.0370713503151684e-06  7.9560161743877651e-06  7.8232320986121948e-06  7.6382971589364384e-06  7.4092209127289004e-06  7.1548403295052456e-06  6.9029579022999511e-06  6.6836771284799154e-06  6.5219504658502692e-06  6.4271989656740328e-06  6.3865380902556816e-06  1.2764773662524854e-05  1.2783840604618014e-05  6.4037977471652307e-06  6.4636918239468585e-06  6.5944312098755076e-06  6.8051680344220667e-06  7.0811591388270835e-06  7.3918877196539699e-06  7.7000800787044783e-06  7.9730224996517962e-06  8.1901541793890311e-06  8.3428869615632801e-06  8.4317122034658016e-06  8.4638909518187203e-06  8.4509519215595021e-06  8.4058084099041767e-06  8.3404872551679591e-06  8.2649916162609773e-06  8.1870268677791245e-06  8.1121460216839594e-06  8.0440608729834859e-06  7.9850259368964877e-06  7.9362480914455940e-06  7.8982692553282907e-06  7.8712722248668751e-06  7.8552856956566312e-06  7.8502974398593850e-06  7.8563044565316349e-06  7.8733275520556480e-06  7.9013996127123642e-06  7.9405129946498945e-06  7.9904957568993248e-06  8.0507900983773967e-06  8.1201299986961461e-06  8.1961499597611826e-06  8.2749688027348507e-06  8.3507900743039721e-06  8.4155963688165363e-06  8.4590773695750189e-06  8.4691510839215895e-06  8.4331779193654050e-06  8.3402306033910729e-06  8.1830370646312911e-06  7.9610425747471137e-06  7.6832731850468268e-06  7.3724420741571778e-06  7.0631864822607602e-06  6.7899198261091153e-06  6.5817673652989428e-06  6.4555395558561266e-06  6.4004820087932759e-06  1.2775145606037504e-05  1.2797873163174085e-05  6.4247672771932519e-06  6.5084747609879339e-06  6.6722445758270809e-06  6.9123663229359499e-06  7.2076259499609151e-06  7.5284592768342725e-06  7.8361194303148241e-06  8.0995157929025837e-06  8.3033282786701861e-06  8.4421566207004852e-06  8.5170594422692288e-06  8.5355247331051715e-06  8.5097423853329152e-06  8.4532299817189430e-06  8.3782324755984608e-06  8.2947100470586715e-06  8.2102556459193466e-06  8.1302994085416541e-06  8.0583964598371546e-06  7.9965949713377589e-06  7.9458706307437136e-06  7.9065559364578036e-06  7.8786812144664834e-06  7.8621864468263315e-06  7.8570190957317126e-06  7.8631651382856812e-06  7.8806572063860672e-06  7.9095746150182277e-06  7.9500121697771101e-06  8.0019687919029826e-06  8.0651126027913827e-06  8.1384186306464402e-06  8.2197365968195794e-06  8.3053542903833681e-06  8.3896145882709244e-06  8.4645810200110601e-06  8.5198512469648077e-06  8.5429686550291198e-06  8.5208200539988446e-06  8.4430051510324058e-06  8.3012867954363923e-06  8.0929486942029007e-06  7.8233181059924542e-06  7.5102671886769215e-06  7.1906754415260208e-06  6.8971670053485628e-06  6.6555518752390576e-06  6.4934043467743015e-06  6.4171581321451631e-06  1.2789753154591703e-05  1.2795357618396366e-05  6.4507307472383540e-06  6.5985471807346554e-06  6.8338209642018936e-06  7.1120400300025593e-06  7.4191094501365129e-06  7.7419797209393272e-06  8.0330841964270681e-06  8.2679512188879694e-06  8.4432165882573967e-06  8.5566157439932931e-06  8.6079424131740922e-06  8.6043685555851927e-06  8.5591276942892116e-06  8.4864555513266991e-06  8.3984862464596835e-06  8.3047303361109412e-06  8.2123867322376089e-06  8.1265871859535158e-06  8.0505838416542175e-06  7.9860605708622037e-06  7.9336023168076308e-06  7.8932031537883988e-06  7.8646628446450196e-06  7.8478009207624487e-06  7.8425183407722094e-06  7.8487890977405565e-06  7.8666548113357275e-06  7.8962471711084880e-06  7.9378005615182074e-06  7.9915712660700306e-06  8.0575874221052405e-06  8.1352205385853415e-06  8.2226775683810564e-06  8.3165712979232715e-06  8.4116070136909747e-06  8.5001307853848802e-06  8.5719382491357465e-06  8.6143174255834912e-06  8.6141913737922413e-06  8.5610393874494667e-06  8.4466155934878417e-06  8.2675938073935649e-06  8.0286087913975074e-06  7.7258484021878412e-06  7.4052327249176937e-06  7.1052946177522311e-06  6.8183772675671407e-06  6.5745005132564688e-06  6.4312523446014964e-06  1.2795227165899154e-05  1.2798711573780335e-05  6.5208618439844474e-06  6.9651762085485969e-06  7.5824898645625573e-06  7.8768146168776669e-06  8.0011112600191117e-06  8.1653069260097565e-06  8.3445668667996283e-06  8.5052967452098686e-06  8.6322023763069794e-06  8.7100483834402660e-06  8.7286694139160245e-06  8.6940660629949082e-06  8.6218842451769078e-06  8.5275013611156668e-06  8.4224403094431672e-06  8.3152854371048595e-06  8.2126497948441428e-06  8.1193115448214905e-06  8.0381454885465980e-06  7.9703196627128546e-06  7.9158386421191367e-06  7.8742016209890620e-06  7.8448948155346247e-06  7.8275992001933995e-06  7.8221795047380838e-06  7.8286026582972832e-06  7.8469069394136156e-06  7.8772645616573014e-06  7.9200768756878143e-06  7.9759566709879311e-06  8.0454601936460568e-06  8.1285437161968021e-06  8.2238963571741343e-06  8.3285762655437155e-06  8.4377002760318038e-06  8.5441408023687368e-06  8.6387086090819117e-06  8.7077729462442544e-06  8.7374569225327295e-06  8.7134864735432548e-06  8.6533117611581508e-06  8.5398383019938660e-06  8.4166519690366214e-06  8.2628633599186317e-06  8.1482629656904036e-06  7.9841895108970045e-06  7.4024858276807792e-06  6.7817279989405258e-06  6.4532607681200742e-06  1.2784248789509601e-05  1.3264521310350921e-05  7.0565834751753915e-06  9.6714640112598990e-06  1.7035962630244152e-05  2.2222375143807852e-05  1.5565994072163280e-05  1.1144146140156871e-05  9.3665003728330350e-06  8.9097189877470762e-06  8.8901935450062289e-06  8.9106513089706481e-06  8.8843328329119456e-06  8.8068520327595624e-06  8.6988141100885236e-06  8.5769676101519105e-06  8.4507220847532938e-06  8.3269411193652944e-06  8.2115091921889506e-06  8.1089053467786411e-06  8.0216012124370937e-06  7.9500543616010548e-06  7.8934177116074828e-06  7.8504841970505753e-06  7.8203399590714473e-06  7.8025401550079709e-06  7.7969563937891558e-06  7.8035651902583995e-06  7.8223713917978025e-06  7.8535388012217980e-06  7.8976365171957923e-06  7.9557495097013440e-06  8.0291943622117555e-06  8.1187906257340162e-06  8.2238247044351062e-06  8.3418181481072815e-06  8.4683107868936018e-06  8.5978682279518756e-06  8.7220194565955962e-06  8.8248852637906777e-06  8.8962433517196391e-06  8.9210524350510943e-06  8.9956409708442260e-06  9.1403979914390237e-06  9.8331237982131178e-06  1.1346193156637377e-05  1.4838045034925973e-05  2.1888965378104619e-05  1.7962532017379497e-05  1.0263889512391126e-05  6.9312178863897797e-06  1.2837905447921627e-05  1.4423367095742246e-05  1.5781523495957934e-05  2.9515544761482913e-02  5.6915305037359906e-02  5.2940715217719217e-02  3.3312560953787401e-02  1.0870020073922231e-02  3.1257507463509706e-05  1.1758981747847832e-05  9.5259302035231183e-06  9.2021502728748434e-06  9.0859346916619989e-06  8.9437203704789620e-06  8.7886830036385448e-06  8.6339659301228339e-06  8.4827199835827488e-06  8.3390296510446787e-06  8.2081506073418444e-06  8.0945267221072406e-06  8.0002953715169668e-06  7.9249165190150658e-06  7.8662677949873256e-06  7.8221347137317645e-06  7.7911223455631328e-06  7.7727350686361047e-06  7.7669526709498280e-06  7.7737982802574401e-06  7.7931842187544966e-06  7.8251471566200995e-06  7.8703714147856941e-06  7.9305515998985599e-06  8.0080878207841737e-06  8.1051119962891495e-06  8.2216373794009553e-06  8.3554701792488407e-06  8.5030626456747531e-06  8.6608619234937952e-06  8.8188573518657722e-06  8.9772674478826005e-06  9.1243334600220066e-06  9.2852668540054474e-06  1.0096225793194264e-05  1.2258114787111033e-05  2.4466944731616395e-05  7.8115637999580040e-03  2.9024644824044394e-02  4.9947578726310130e-02  5.7454933374513392e-02  4.1258007886606426e-02  1.6314644003802102e-05  1.4368276384996167e-05  3.1731648449964248e-05  8.9772965542836689e-02  2.0998451195327184e-01  2.1432633117758343e-01  1.8042039733110021e-01  1.3254690277524284e-01  8.2086776863813382e-02  3.7691694659335043e-02  6.0718142020125725e-03  1.6496696037938721e-05  1.0323918853018365e-05  9.4095402315847333e-06  9.1106928625266237e-06  8.8892348311894425e-06  8.6978027725585211e-06  8.5179771713539496e-06  8.3508783390603090e-06  8.2015434286510894e-06  8.0749925254004387e-06  7.9733098504344740e-06  7.8944600885114728e-06  7.8343419528208311e-06  7.7892914535036343e-06  7.7573822617499422e-06  7.7382653295883423e-06  7.7322251073090289e-06  7.7394014010769668e-06  7.7595149725636679e-06  7.7922283516821196e-06  7.8381856379254200e-06  7.8998357534454095e-06  7.9811331815242233e-06  8.0863505964174239e-06  8.2166407079980756e-06  8.3687201743509983e-06  8.5414021175491671e-06  8.7295895227111944e-06  8.9401621553667767e-06  9.2090955272757220e-06  9.6126944616111627e-06  1.0839924085004428e-05  1.6416011889205325e-05  2.3735026267867427e-03  3.0886031865551535e-02  7.5873971768581086e-02  1.2835266168635862e-01  1.7556490132775934e-01  2.0851810152485234e-01  2.0794639271969576e-01  1.1414065776412007e-01  2.3364150279039045e-05  4.0214555900758453e-01  4.6452553298746280e-01  4.9590777414815085e-01  4.2326872532184540e-01  3.5516606515237348e-01  2.7515367723053102e-01  1.9397901120122332e-01  1.1960796386711525e-01  5.9800612727017123e-02  1.7376831064953538e-02  2.9829548733098004e-05  1.1348863801940653e-05  9.4237744913429859e-06  9.0130896366995012e-06  8.7715508565080754e-06  8.5568804347870682e-06  8.3622006234110579e-06  8.1905732917486287e-06  8.0486995728594617e-06  7.9394549806219811e-06  7.8582383519705866e-06  7.7977689057386469e-06  7.7522818976834423e-06  7.7193540420880576e-06  7.6992161524494078e-06  7.6928022371281144e-06  7.7004895680693005e-06  7.7216656852497968e-06  7.7551391858605429e-06  7.8011474669136569e-06  7.8630477098073445e-06  7.9471417364704898e-06  8.0609466385602701e-06  8.2084964676603887e-06  8.3801687974874565e-06  8.5861884726385177e-06  8.8145742483114481e-06  9.1402216589633608e-06  9.8880892690610433e-06  1.1859854700139202e-05  2.4103045997163946e-05  1.2334159996409249e-02  5.3286978138658327e-02  1.1633982725972973e-01  1.9003221932569558e-01  2.7090029241458213e-01  3.5106259516368277e-01  4.1793737374811463e-01  4.4857873254215075e-01  4.6987717421035557e-01  3.5719141031035301e-01  9.9992158354435634e-01  9.8850748613539596e-01  7.8722797671362521e-01  6.6365412410250635e-01  5.5706962444107666e-01  4.4356930031598391e-01  3.3591388923525828e-01  2.3532163406306283e-01  1.4695530432942955e-01  7.6581416255949886e-02  2.7374715612028033e-02  2.1194634470704553e-04  1.2646400539341170e-05  9.4773578943255317e-06  8.9025792074375431e-06  8.6065495890988978e-06  8.3756458998171281e-06  8.1748399864858209e-06  8.0136296564826095e-06  7.8974516505188906e-06  7.8160652870245161e-06  7.7571442243923424e-06  7.7118634948430296e-06  7.6774884293188266e-06  7.6557406387368692e-06  7.6487596864702693e-06  7.6572725652121790e-06  7.6802242136545407e-06  7.7147359710602886e-06  7.7597691663858311e-06  7.8199402141229382e-06  7.9050522330376563e-06  8.0265751074547830e-06  8.2008323151211561e-06  8.3977035681442907e-06  8.6599949702077707e-06  9.0161286433966433e-06  1.0110652826502852e-05  1.3250767791301100e-05  5.2638854169180461e-05  2.1704872249186914e-02  7.1607260945029172e-02  1.4419203704767458e-01  2.3149793011709924e-01  3.3208285427956619e-01  4.4186210365937750e-01  5.4444027585838728e-01  6.5608731720217517e-01  8.0567805055457942e-01  9.9972464826306040e-01  9.9971293784566906e-01  9.9998425463244933e-01  9.9998626865180462e-01  9.9995098538319283e-01  9.0643575144569799e-01  7.4473801120127103e-01  6.1564914064752596e-01  4.8916503890359775e-01  3.6956212952650475e-01  2.6046085627515669e-01  1.6620354219313194e-01  9.1207889601757602e-02  3.8455627858398150e-02  5.3728271271265560e-03  1.6324960784086660e-05  1.0002836453585535e-05  8.8137572414661142e-06  8.4362897202856093e-06  8.1687335839156576e-06  7.9742232165320571e-06  7.8507047925135871e-06  7.7711518677074904e-06  7.7159973151240683e-06  7.6712544007836049e-06  7.6340752185814144e-06  7.6095652343921829e-06  7.6017122469545834e-06  7.6114664191804808e-06  7.6379067651054980e-06  7.6750281293650552e-06  7.7183439934952501e-06  7.7754430785016306e-06  7.8611002352334449e-06  7.9921389833151053e-06  8.2229739902948875e-06  8.4971893388545620e-06  9.0946306055378228e-06  1.0600029754024760e-05  1.6140455418899849e-05  1.8438416255449586e-03  3.2324887859864683e-02  8.7483933701547389e-02  1.6364692278331006e-01  2.5755005413397547e-01  3.6697697143490265e-01  4.8858885466183183e-01  6.1010281571664848e-01  7.4146192541763578e-01  9.3965079701105692e-01  9.9996760694880638e-01  9.9998775899623127e-01  9.9997842648449620e-01  9.9998959676595811e-01  9.9999308037061352e-01  9.9998613536277581e-01  9.9994637887632265e-01  9.1122181085885146e-01  7.6787913626935655e-01  6.3672336643782623e-01  5.0876511781268841e-01  3.8739659453583480e-01  2.7717326985815022e-01  1.8262164074377515e-01  1.0676784229841518e-01  5.1776651414664941e-02  1.6192171400372681e-02  4.2703688250235904e-05  1.2783847981034157e-05  9.5139155107971167e-06  8.4998781605731365e-06  8.0935847017239347e-06  7.8985901851570725e-06  7.7886260205867713e-06  7.7217563918338627e-06  7.6683379036561497e-06  7.6215489681759190e-06  7.5911124628252495e-06  7.5818847295640437e-06  7.5941861228260760e-06  7.6296336613543459e-06  7.6785457774487290e-06  7.7324318553597695e-06  7.8109723776981427e-06  7.9448870331412841e-06  8.1845939117746421e-06  8.8114631069784561e-06  9.9562958637301718e-06  1.2627647267522464e-05  3.2315881853823680e-05  1.2721484146955874e-02  4.7126124191763104e-02  1.0453271119386164e-01  1.7999359078571675e-01  2.7482962228348895e-01  3.8583751626598345e-01  5.0873096252366434e-01  6.3654149487423040e-01  7.6498325522495481e-01  9.3886567255906328e-01  9.9995833485748264e-01  9.9998654646447438e-01  9.9999306909215990e-01  9.9998877412259768e-01  9.9998898801552283e-01  9.9999360239868362e-01  9.9998940012353532e-01  9.9997581651536582e-01  9.9984613754079033e-01  8.8380617880214551e-01  7.6345120395501975e-01  6.3900932111468267e-01  5.1595993110568239e-01  3.9868378469270915e-01  2.9245308387816538e-01  2.0141490263238201e-01  1.2786381160341045e-01  7.3198494797007393e-02  3.5982436750635435e-02  1.1636585361389328e-02  6.3602074591007123e-05  1.6673736207876150e-05  1.1720340662470495e-05  1.0138584144311064e-05  9.3822419753034733e-06  8.9776361173832933e-06  8.7115266443576639e-06  8.5372992041215751e-06  8.4530741292744642e-06  8.4343072306777450e-06  8.4732336255297089e-06  8.5901987449343680e-06  8.7709417114392522e-06  9.0066721481690897e-06  9.4174010469880872e-06  1.0179815297010090e-05  1.1656386657370052e-05  1.6039918027041586e-05  4.9783689878187624e-05  9.3440971434600242e-03  3.0763106208976734e-02  7.0195017235163235e-02  1.2636637263801712e-01  1.9933309668647586e-01  2.9060507590450579e-01  3.9801774935946432e-01  5.1626229108557065e-01  6.4090333391503207e-01  7.6281744023360065e-01  8.9728316524170659e-01  9.9989050586870576e-01  9.9997567187744096e-01  9.9998902326335093e-01  9.9999344123546419e-01  9.9998965004797147e-01  9.9997990214344523e-01  9.9999041251624921e-01  9.9998604934825108e-01  9.9997487012049413e-01  9.9992537918595370e-01  9.6103694344360591e-01  8.5598038366420581e-01  7.4887703712983966e-01  6.3492790951707034e-01  5.2040676108460260e-01  4.1142560647272713e-01  3.1315973386107054e-01  2.2922204041436373e-01  1.6136215958569483e-01  1.0944500368623758e-01  7.2115335288766444e-02  4.6473196777915261e-02  2.8383348947863471e-02  1.6505922874722950e-02  9.9615064680060681e-03  4.8116592240798981e-03  2.1887373395902726e-03  3.9818607272594037e-04  1.2422643494242185e-04  8.2920028299419664e-05  7.4905751804656359e-05  8.1402105362234715e-05  1.1725111099406849e-04  3.3855491991968700e-04  1.9534740747540126e-03  4.2954124823522573e-03  8.9988820246326238e-03  1.5569846389351570e-02  2.5166471402254646e-02  4.2658617813659594e-02  7.0202119359068615e-02  1.0840538069330510e-01  1.6017646710930181e-01  2.2779693413265645e-01  3.1218852143911707e-01  4.1140788626002117e-01  5.2132959379952204e-01  6.3680863798710274e-01  7.5191282193380571e-01  8.5983311185729439e-01  9.7000016272245004e-01  9.9992210165328910e-01  9.9997224478037605e-01  9.9998484450566916e-01  9.9998978852069642e-01  9.9998487095413791e-01  9.9972700608251297e-01  9.9995664478372071e-01  9.9995419259097151e-01  9.9993676397282372e-01  9.9986786324099086e-01  9.8038363817822349e-01  9.0874242279338613e-01  8.2988392375061437e-01  7.3464240001063774e-01  6.3261511672937432e-01  5.3006896470195419e-01  4.3331903476818417e-01  3.4713550858309433e-01  2.7431102565130411e-01  2.1572505550729063e-01  1.7053272532421249e-01  1.3670000848418329e-01  1.1229284762673884e-01  9.5482688722551390e-02  8.3818253083375080e-02  7.5338532224943786e-02  6.9605438700119288e-02  6.5936633926805502e-02  6.3377391826308332e-02  6.1773900058456420e-02  6.1225020073227929e-02  6.1544181983748412e-02  6.2823642665334620e-02  6.5358843909336717e-02  6.9250470162203301e-02  7.4759503932745788e-02  8.3007876239749201e-02  9.5099596705181019e-02  1.1231373943528897e-01  1.3666623244957241e-01  1.7002578697756784e-01  2.1486447782381130e-01  2.7370239251562112e-01  3.4711983378187644e-01  4.3402365817268379e-01  5.3148853290930287e-01  6.3488968667897638e-01  7.3798671077295952e-01  8.3385078436529991e-01  9.1658040156415588e-01  9.8049947975944807e-01  9.9982810783671816e-01  9.9992795499190512e-01  9.9995410385119643e-01  9.9996257780559361e-01  9.9993930986349233e-01  3.3946695211446243e-01  6.4722444122743084e-01  8.0589598054303757e-01  9.0132037891196326e-01  9.4137655974074153e-01  9.4452428592299786e-01  9.2230533043550889e-01  8.7632500548551728e-01  8.0805951852566837e-01  7.2688809609605987e-01  6.3945060878180537e-01  5.5290902712193446e-01  4.729445523