<?xml version="1.0"?>
<VTKFile type="UnstructuredGrid"  version="0.1"  >
<UnstructuredGrid>
<Piece  NumberOfPoints="2601" NumberOfCells="5000">
<Points>
<DataArray  type="Float64"  NumberOfComponents="3"  format="ascii">0 0 0  0.03 0 0  0.06 0 0  0.09 0 0  0.12 0 0  0.15 0 0  0.18 0 0  0.21 0 0  0.24 0 0  0.27 0 0  0.3 0 0  0.33 0 0  0.36 0 0  0.39 0 0  0.42 0 0  0.45 0 0  0.48 0 0  0.51 0 0  0.54 0 0  0.57 0 0  0.6 0 0  0.63 0 0  0.66 0 0  0.6899999999999999 0 0  0.72 0 0  0.75 0 0  0.78 0 0  0.8100000000000001 0 0  0.84 0 0  0.87 0 0  0.9 0 0  0.93 0 0  0.96 0 0  0.99 0 0  1.02 0 0  1.05 0 0  1.08 0 0  1.11 0 0  1.14 0 0  1.17 0 0  1.2 0 0  1.23 0 0  1.26 0 0  1.29 0 0  1.32 0 0  1.35 0 0  1.38 0 0  1.41 0 0  1.44 0 0  1.47 0 0  1.5 0 0  0 0.02 0  0.03 0.02 0  0.06 0.02 0  0.09 0.02 0  0.12 0.02 0  0.15 0.02 0  0.18 0.02 0  0.21 0.02 0  0.24 0.02 0  0.27 0.02 0  0.3 0.02 0  0.33 0.02 0  0.36 0.02 0  0.39 0.02 0  0.42 0.02 0  0.45 0.02 0  0.48 0.02 0  0.51 0.02 0  0.54 0.02 0  0.57 0.02 0  0.6 0.02 0  0.63 0.02 0  0.66 0.02 0  0.6899999999999999 0.02 0  0.72 0.02 0  0.75 0.02 0  0.78 0.02 0  0.8100000000000001 0.02 0  0.84 0.02 0  0.87 0.02 0  0.9 0.02 0  0.93 0.02 0  0.96 0.02 0  0.99 0.02 0  1.02 0.02 0  1.05 0.02 0  1.08 0.02 0  1.11 0.02 0  1.14 0.02 0  1.17 0.02 0  1.2 0.02 0  1.23 0.02 0  1.26 0.02 0  1.29 0.02 0  1.32 0.02 0  1.35 0.02 0  1.38 0.02 0  1.41 0.02 0  1.44 0.02 0  1.47 0.02 0  1.5 0.02 0  0 0.04 0  0.03 0.04 0  0.06 0.04 0  0.09 0.04 0  0.12 0.04 0  0.15 0.04 0  0.18 0.04 0  0.21 0.04 0  0.24 0.04 0  0.27 0.04 0  0.3 0.04 0  0.33 0.04 0  0.36 0.04 0  0.39 0.04 0  0.42 0.04 0  0.45 0.04 0  0.48 0.04 0  0.51 0.04 0  0.54 0.04 0  0.57 0.04 0  0.6 0.04 0  0.63 0.04 0  0.66 0.04 0  0.6899999999999999 0.04 0  0.72 0.04 0  0.75 0.04 0  0.78 0.04 0  0.8100000000000001 0.04 0  0.84 0.04 0  0.87 0.04 0  0.9 0.04 0  0.93 0.04 0  0.96 0.04 0  0.99 0.04 0  1.02 0.04 0  1.05 0.04 0  1.08 0.04 0  1.11 0.04 0  1.14 0.04 0  1.17 0.04 0  1.2 0.04 0  1.23 0.04 0  1.26 0.04 0  1.29 0.04 0  1.32 0.04 0  1.35 0.04 0  1.38 0.04 0  1.41 0.04 0  1.44 0.04 0  1.47 0.04 0  1.5 0.04 0  0 0.06 0  0.03 0.06 0  0.06 0.06 0  0.09 0.06 0  0.12 0.06 0  0.15 0.06 0  0.18 0.06 0  0.21 0.06 0  0.24 0.06 0  0.27 0.06 0  0.3 0.06 0  0.33 0.06 0  0.36 0.06 0  0.39 0.06 0  0.42 0.06 0  0.45 0.06 0  0.48 0.06 0  0.51 0.06 0  0.54 0.06 0  0.57 0.06 0  0.6 0.06 0  0.63 0.06 0  0.66 0.06 0  0.6899999999999999 0.06 0  0.72 0.06 0  0.75 0.06 0  0.78 0.06 0  0.8100000000000001 0.06 0  0.84 0.06 0  0.87 0.06 0  0.9 0.06 0  0.93 0.06 0  0.96 0.06 0  0.99 0.06 0  1.02 0.06 0  1.05 0.06 0  1.08 0.06 0  1.11 0.06 0  1.14 0.06 0  1.17 0.06 0  1.2 0.06 0  1.23 0.06 0  1.26 0.06 0  1.29 0.06 0  1.32 0.06 0  1.35 0.06 0  1.38 0.06 0  1.41 0.06 0  1.44 0.06 0  1.47 0.06 0  1.5 0.06 0  0 0.08 0  0.03 0.08 0  0.06 0.08 0  0.09 0.08 0  0.12 0.08 0  0.15 0.08 0  0.18 0.08 0  0.21 0.08 0  0.24 0.08 0  0.27 0.08 0  0.3 0.08 0  0.33 0.08 0  0.36 0.08 0  0.39 0.08 0  0.42 0.08 0  0.45 0.08 0  0.48 0.08 0  0.51 0.08 0  0.54 0.08 0  0.57 0.08 0  0.6 0.08 0  0.63 0.08 0  0.66 0.08 0  0.6899999999999999 0.08 0  0.72 0.08 0  0.75 0.08 0  0.78 0.08 0  0.8100000000000001 0.08 0  0.84 0.08 0  0.87 0.08 0  0.9 0.08 0  0.93 0.08 0  0.96 0.08 0  0.99 0.08 0  1.02 0.08 0  1.05 0.08 0  1.08 0.08 0  1.11 0.08 0  1.14 0.08 0  1.17 0.08 0  1.2 0.08 0  1.23 0.08 0  1.26 0.08 0  1.29 0.08 0  1.32 0.08 0  1.35 0.08 0  1.38 0.08 0  1.41 0.08 0  1.44 0.08 0  1.47 0.08 0  1.5 0.08 0  0 0.1 0  0.03 0.1 0  0.06 0.1 0  0.09 0.1 0  0.12 0.1 0  0.15 0.1 0  0.18 0.1 0  0.21 0.1 0  0.24 0.1 0  0.27 0.1 0  0.3 0.1 0  0.33 0.1 0  0.36 0.1 0  0.39 0.1 0  0.42 0.1 0  0.45 0.1 0  0.48 0.1 0  0.51 0.1 0  0.54 0.1 0  0.57 0.1 0  0.6 0.1 0  0.63 0.1 0  0.66 0.1 0  0.6899999999999999 0.1 0  0.72 0.1 0  0.75 0.1 0  0.78 0.1 0  0.8100000000000001 0.1 0  0.84 0.1 0  0.87 0.1 0  0.9 0.1 0  0.93 0.1 0  0.96 0.1 0  0.99 0.1 0  1.02 0.1 0  1.05 0.1 0  1.08 0.1 0  1.11 0.1 0  1.14 0.1 0  1.17 0.1 0  1.2 0.1 0  1.23 0.1 0  1.26 0.1 0  1.29 0.1 0  1.32 0.1 0  1.35 0.1 0  1.38 0.1 0  1.41 0.1 0  1.44 0.1 0  1.47 0.1 0  1.5 0.1 0  0 0.12 0  0.03 0.12 0  0.06 0.12 0  0.09 0.12 0  0.12 0.12 0  0.15 0.12 0  0.18 0.12 0  0.21 0.12 0  0.24 0.12 0  0.27 0.12 0  0.3 0.12 0  0.33 0.12 0  0.36 0.12 0  0.39 0.12 0  0.42 0.12 0  0.45 0.12 0  0.48 0.12 0  0.51 0.12 0  0.54 0.12 0  0.57 0.12 0  0.6 0.12 0  0.63 0.12 0  0.66 0.12 0  0.6899999999999999 0.12 0  0.72 0.12 0  0.75 0.12 0  0.78 0.12 0  0.8100000000000001 0.12 0  0.84 0.12 0  0.87 0.12 0  0.9 0.12 0  0.93 0.12 0  0.96 0.12 0  0.99 0.12 0  1.02 0.12 0  1.05 0.12 0  1.08 0.12 0  1.11 0.12 0  1.14 0.12 0  1.17 0.12 0  1.2 0.12 0  1.23 0.12 0  1.26 0.12 0  1.29 0.12 0  1.32 0.12 0  1.35 0.12 0  1.38 0.12 0  1.41 0.12 0  1.44 0.12 0  1.47 0.12 0  1.5 0.12 0  0 0.14 0  0.03 0.14 0  0.06 0.14 0  0.09 0.14 0  0.12 0.14 0  0.15 0.14 0  0.18 0.14 0  0.21 0.14 0  0.24 0.14 0  0.27 0.14 0  0.3 0.14 0  0.33 0.14 0  0.36 0.14 0  0.39 0.14 0  0.42 0.14 0  0.45 0.14 0  0.48 0.14 0  0.51 0.14 0  0.54 0.14 0  0.57 0.14 0  0.6 0.14 0  0.63 0.14 0  0.66 0.14 0  0.6899999999999999 0.14 0  0.72 0.14 0  0.75 0.14 0  0.78 0.14 0  0.8100000000000001 0.14 0  0.84 0.14 0  0.87 0.14 0  0.9 0.14 0  0.93 0.14 0  0.96 0.14 0  0.99 0.14 0  1.02 0.14 0  1.05 0.14 0  1.08 0.14 0  1.11 0.14 0  1.14 0.14 0  1.17 0.14 0  1.2 0.14 0  1.23 0.14 0  1.26 0.14 0  1.29 0.14 0  1.32 0.14 0  1.35 0.14 0  1.38 0.14 0  1.41 0.14 0  1.44 0.14 0  1.47 0.14 0  1.5 0.14 0  0 0.16 0  0.03 0.16 0  0.06 0.16 0  0.09 0.16 0  0.12 0.16 0  0.15 0.16 0  0.18 0.16 0  0.21 0.16 0  0.24 0.16 0  0.27 0.16 0  0.3 0.16 0  0.33 0.16 0  0.36 0.16 0  0.39 0.16 0  0.42 0.16 0  0.45 0.16 0  0.48 0.16 0  0.51 0.16 0  0.54 0.16 0  0.57 0.16 0  0.6 0.16 0  0.63 0.16 0  0.66 0.16 0  0.6899999999999999 0.16 0  0.72 0.16 0  0.75 0.16 0  0.78 0.16 0  0.8100000000000001 0.16 0  0.84 0.16 0  0.87 0.16 0  0.9 0.16 0  0.93 0.16 0  0.96 0.16 0  0.99 0.16 0  1.02 0.16 0  1.05 0.16 0  1.08 0.16 0  1.11 0.16 0  1.14 0.16 0  1.17 0.16 0  1.2 0.16 0  1.23 0.16 0  1.26 0.16 0  1.29 0.16 0  1.32 0.16 0  1.35 0.16 0  1.38 0.16 0  1.41 0.16 0  1.44 0.16 0  1.47 0.16 0  1.5 0.16 0  0 0.18 0  0.03 0.18 0  0.06 0.18 0  0.09 0.18 0  0.12 0.18 0  0.15 0.18 0  0.18 0.18 0  0.21 0.18 0  0.24 0.18 0  0.27 0.18 0  0.3 0.18 0  0.33 0.18 0  0.36 0.18 0  0.39 0.18 0  0.42 0.18 0  0.45 0.18 0  0.48 0.18 0  0.51 0.18 0  0.54 0.18 0  0.57 0.18 0  0.6 0.18 0  0.63 0.18 0  0.66 0.18 0  0.6899999999999999 0.18 0  0.72 0.18 0  0.75 0.18 0  0.78 0.18 0  0.8100000000000001 0.18 0  0.84 0.18 0  0.87 0.18 0  0.9 0.18 0  0.93 0.18 0  0.96 0.18 0  0.99 0.18 0  1.02 0.18 0  1.05 0.18 0  1.08 0.18 0  1.11 0.18 0  1.14 0.18 0  1.17 0.18 0  1.2 0.18 0  1.23 0.18 0  1.26 0.18 0  1.29 0.18 0  1.32 0.18 0  1.35 0.18 0  1.38 0.18 0  1.41 0.18 0  1.44 0.18 0  1.47 0.18 0  1.5 0.18 0  0 0.2 0  0.03 0.2 0  0.06 0.2 0  0.09 0.2 0  0.12 0.2 0  0.15 0.2 0  0.18 0.2 0  0.21 0.2 0  0.24 0.2 0  0.27 0.2 0  0.3 0.2 0  0.33 0.2 0  0.36 0.2 0  0.39 0.2 0  0.42 0.2 0  0.45 0.2 0  0.48 0.2 0  0.51 0.2 0  0.54 0.2 0  0.57 0.2 0  0.6 0.2 0  0.63 0.2 0  0.66 0.2 0  0.6899999999999999 0.2 0  0.72 0.2 0  0.75 0.2 0  0.78 0.2 0  0.8100000000000001 0.2 0  0.84 0.2 0  0.87 0.2 0  0.9 0.2 0  0.93 0.2 0  0.96 0.2 0  0.99 0.2 0  1.02 0.2 0  1.05 0.2 0  1.08 0.2 0  1.11 0.2 0  1.14 0.2 0  1.17 0.2 0  1.2 0.2 0  1.23 0.2 0  1.26 0.2 0  1.29 0.2 0  1.32 0.2 0  1.35 0.2 0  1.38 0.2 0  1.41 0.2 0  1.44 0.2 0  1.47 0.2 0  1.5 0.2 0  0 0.22 0  0.03 0.22 0  0.06 0.22 0  0.09 0.22 0  0.12 0.22 0  0.15 0.22 0  0.18 0.22 0  0.21 0.22 0  0.24 0.22 0  0.27 0.22 0  0.3 0.22 0  0.33 0.22 0  0.36 0.22 0  0.39 0.22 0  0.42 0.22 0  0.45 0.22 0  0.48 0.22 0  0.51 0.22 0  0.54 0.22 0  0.57 0.22 0  0.6 0.22 0  0.63 0.22 0  0.66 0.22 0  0.6899999999999999 0.22 0  0.72 0.22 0  0.75 0.22 0  0.78 0.22 0  0.8100000000000001 0.22 0  0.84 0.22 0  0.87 0.22 0  0.9 0.22 0  0.93 0.22 0  0.96 0.22 0  0.99 0.22 0  1.02 0.22 0  1.05 0.22 0  1.08 0.22 0  1.11 0.22 0  1.14 0.22 0  1.17 0.22 0  1.2 0.22 0  1.23 0.22 0  1.26 0.22 0  1.29 0.22 0  1.32 0.22 0  1.35 0.22 0  1.38 0.22 0  1.41 0.22 0  1.44 0.22 0  1.47 0.22 0  1.5 0.22 0  0 0.24 0  0.03 0.24 0  0.06 0.24 0  0.09 0.24 0  0.12 0.24 0  0.15 0.24 0  0.18 0.24 0  0.21 0.24 0  0.24 0.24 0  0.27 0.24 0  0.3 0.24 0  0.33 0.24 0  0.36 0.24 0  0.39 0.24 0  0.42 0.24 0  0.45 0.24 0  0.48 0.24 0  0.51 0.24 0  0.54 0.24 0  0.57 0.24 0  0.6 0.24 0  0.63 0.24 0  0.66 0.24 0  0.6899999999999999 0.24 0  0.72 0.24 0  0.75 0.24 0  0.78 0.24 0  0.8100000000000001 0.24 0  0.84 0.24 0  0.87 0.24 0  0.9 0.24 0  0.93 0.24 0  0.96 0.24 0  0.99 0.24 0  1.02 0.24 0  1.05 0.24 0  1.08 0.24 0  1.11 0.24 0  1.14 0.24 0  1.17 0.24 0  1.2 0.24 0  1.23 0.24 0  1.26 0.24 0  1.29 0.24 0  1.32 0.24 0  1.35 0.24 0  1.38 0.24 0  1.41 0.24 0  1.44 0.24 0  1.47 0.24 0  1.5 0.24 0  0 0.26 0  0.03 0.26 0  0.06 0.26 0  0.09 0.26 0  0.12 0.26 0  0.15 0.26 0  0.18 0.26 0  0.21 0.26 0  0.24 0.26 0  0.27 0.26 0  0.3 0.26 0  0.33 0.26 0  0.36 0.26 0  0.39 0.26 0  0.42 0.26 0  0.45 0.26 0  0.48 0.26 0  0.51 0.26 0  0.54 0.26 0  0.57 0.26 0  0.6 0.26 0  0.63 0.26 0  0.66 0.26 0  0.6899999999999999 0.26 0  0.72 0.26 0  0.75 0.26 0  0.78 0.26 0  0.8100000000000001 0.26 0  0.84 0.26 0  0.87 0.26 0  0.9 0.26 0  0.93 0.26 0  0.96 0.26 0  0.99 0.26 0  1.02 0.26 0  1.05 0.26 0  1.08 0.26 0  1.11 0.26 0  1.14 0.26 0  1.17 0.26 0  1.2 0.26 0  1.23 0.26 0  1.26 0.26 0  1.29 0.26 0  1.32 0.26 0  1.35 0.26 0  1.38 0.26 0  1.41 0.26 0  1.44 0.26 0  1.47 0.26 0  1.5 0.26 0  0 0.28 0  0.03 0.28 0  0.06 0.28 0  0.09 0.28 0  0.12 0.28 0  0.15 0.28 0  0.18 0.28 0  0.21 0.28 0  0.24 0.28 0  0.27 0.28 0  0.3 0.28 0  0.33 0.28 0  0.36 0.28 0  0.39 0.28 0  0.42 0.28 0  0.45 0.28 0  0.48 0.28 0  0.51 0.28 0  0.54 0.28 0  0.57 0.28 0  0.6 0.28 0  0.63 0.28 0  0.66 0.28 0  0.6899999999999999 0.28 0  0.72 0.28 0  0.75 0.28 0  0.78 0.28 0  0.8100000000000001 0.28 0  0.84 0.28 0  0.87 0.28 0  0.9 0.28 0  0.93 0.28 0  0.96 0.28 0  0.99 0.28 0  1.02 0.28
[...]
<PointData  Scalars="ControlVisualisation"> 
<DataArray  type="Float64"  Name="ControlVisualisation"  format="ascii">1.9137454974445502e-05  1.2768461019986247e-05  1.2816144932074253e-05  1.2914148585091985e-05  1.3065096988425356e-05  1.3252904332006911e-05  1.3451624967421827e-05  1.3636635938286875e-05  1.3791260577807430e-05  1.3908047958050364e-05  1.3986499780876387e-05  1.4030214730207105e-05  1.4044921491089287e-05  1.4037212572804959e-05  1.4013613080442334e-05  1.3979953234211442e-05  1.3941068449815417e-05  1.3900744794458830e-05  1.3861794129731029e-05  1.3826186600695038e-05  1.3795211236251343e-05  1.3769648109300322e-05  1.3749931840200610e-05  1.3736286049541855e-05  1.3728817566369251e-05  1.3727571772083867e-05  1.3732558222835723e-05  1.3743755052148538e-05  1.3761093568116758e-05  1.3784416239284646e-05  1.3813397841402955e-05  1.3847424515374806e-05  1.3885437346311428e-05  1.3925757882599258e-05  1.3965916816153672e-05  1.4002506134729415e-05  1.4031087444628597e-05  1.4046216550428314e-05  1.4041664593223175e-05  1.4010891907485284e-05  1.3947709833240483e-05  1.3847298201102196e-05  1.3708057372527847e-05  1.3534325284595251e-05  1.3339074830950016e-05  1.3143694442406961e-05  1.2973962215878875e-05  1.2852050167602035e-05  1.2784451447603819e-05  1.2757902527068653e-05  3.8279809266295798e-05  1.2761066017587087e-05  6.3871035779090230e-06  6.4332536274469220e-06  6.5358632589510620e-06  6.7047344695453299e-06  6.9292645320106391e-06  7.1833076068601706e-06  7.4355218806555797e-06  7.6590051334399927e-06  7.8368876011072044e-06  7.9625596170706410e-06  8.0371404530384000e-06  8.0668623820261300e-06  8.0608299804882060e-06  8.0290112593203622e-06  7.9807108075161332e-06  7.9237411999165965e-06  7.8641803588841247e-06  7.8064612353817864e-06  7.7536065397229933e-06  7.7075192747673667e-06  7.6692856476913751e-06  7.6394549615953387e-06  7.6182658166227709e-06  7.6058033062672186e-06  7.6020914480223895e-06  7.6071374344896109e-06  7.6209439311915154e-06  7.6434948605771320e-06  7.6747059191682296e-06  7.7143219747956421e-06  7.7617461404730296e-06  7.8158000828119318e-06  7.8744344702162766e-06  7.9344203715328753e-06  7.9910558846151459e-06  8.0379514109336104e-06  8.0670153292865318e-06  8.0688587221778125e-06  8.0337273761045527e-06  7.9528879687419857e-06  7.8203903470956600e-06  7.6357366971456855e-06  7.4068467189583265e-06  7.1525114928956157e-06  6.9006126845138071e-06  6.6813567070163696e-06  6.5197047603994776e-06  6.4250283289109481e-06  6.3844104591495913e-06  1.2756384483851352e-05  1.2775410787400766e-05  6.4016543700642097e-06  6.4614912520580657e-06  6.5921142092160698e-06  6.8026951547295869e-06  7.0785374897691136e-06  7.3891274492813310e-06  7.6971479553846986e-06  7.9698567862583496e-06  8.1867505267598754e-06  8.3393429921492981e-06  8.4281469659264904e-06  8.4603500956195667e-06  8.4474099748542926e-06  8.4022296910081485e-06  8.3368653851492835e-06  8.2613490329493198e-06  8.1833979869842578e-06  8.1085632164423267e-06  8.0405468138737905e-06  7.9815903163654058e-06  7.9328878692872380e-06  7.8949719616192853e-06  7.8680206225521362e-06  7.8520615681326217e-06  7.8470831745226701e-06  7.8530824727481310e-06  7.8700786089807165e-06  7.8981015383275232e-06  7.9371414382681312e-06  7.9870277444814050e-06  8.0472094706571041e-06  8.1164326896252706e-06  8.1923480079657392e-06  8.2710923772821603e-06  8.3468843719681466e-06  8.4117059551263011e-06  8.4552228400436144e-06  8.4653432557332662e-06  8.4294794085337029e-06  8.3368061774591497e-06  8.1800106172365580e-06  7.9584209607303860e-06  7.6809465379874000e-06  7.3701592897346658e-06  7.0608150756023132e-06  6.7875356262255734e-06  6.5794674467454035e-06  6.4533362473557492e-06  6.3983350959231576e-06  1.2766731098208221e-05  1.2789409912526923e-05  6.4225995423625872e-06  6.5062268471331182e-06  6.6698428209519524e-06  6.9097852501706763e-06  7.2049375483474450e-06  7.5256828382828535e-06  7.8331808679830656e-06  8.0962829515601382e-06  8.2997799438639960e-06  8.4384731774132362e-06  8.5134347042284170e-06  8.5319910292793364e-06  8.5062172546215935e-06  8.4496424655336152e-06  8.3745750869515635e-06  8.2910186031106942e-06  8.2065769331342306e-06  8.1266738638169381e-06  8.0548514080299728e-06  7.9931413561609763e-06  7.9425032525569548e-06  7.9032582064108665e-06  7.8754320369084612e-06  7.8589654895000740e-06  7.8538085029459154e-06  7.8599480346064734e-06  7.8774145501649027e-06  7.9062825044820338e-06  7.9466420801957201e-06  7.9984923101833106e-06  8.0615090345331253e-06  8.1346816101159379e-06  8.2158785882340786e-06  8.3014105294326215e-06  8.3856446004888649e-06  8.4606463801650961e-06  8.5159596230954039e-06  8.5390716128276580e-06  8.5169330102267353e-06  8.4393781981097923e-06  8.2981773024610591e-06  8.0903173801071406e-06  7.8211842424470182e-06  7.5081906858487714e-06  7.1883257362221789e-06  6.8946996686090001e-06  6.6531710490075458e-06  6.4911521502657329e-06  6.4149836969595745e-06  1.2781298860700986e-05  1.2786892358176253e-05  6.4485338182141543e-06  6.5962075741474915e-06  6.8312226765616841e-06  7.1091877464356526e-06  7.4163417520613475e-06  7.7392265360877891e-06  8.0301959849804276e-06  8.2646358169688862e-06  8.4394000898056798e-06  8.5526944324759076e-06  8.6042677914116797e-06  8.6009112697533691e-06  8.5556773265764316e-06  8.4828838795336047e-06  8.3947973606309652e-06  8.3009885035098598e-06  8.2086578295806064e-06  8.1229222458674387e-06  8.0470168111240288e-06  7.9826043395400938e-06  7.9302478684346214e-06  7.8899268096311926e-06  7.8614372897493784e-06  7.8446029789800178e-06  7.8393306670171702e-06  7.8455970285310970e-06  7.8634408048384019e-06  7.8929855434688186e-06  7.9344564612511626e-06  7.9881074727893964e-06  8.0539762109592531e-06  8.1314524248540440e-06  8.2187643258687874e-06  8.3125529536008315e-06  8.4075655428247368e-06  8.4961711996938202e-06  8.5680668680054090e-06  8.6103459787071015e-06  8.6100114081843123e-06  8.5570008437186678e-06  8.4434857006583241e-06  8.2647518958838786e-06  8.0268775687959646e-06  7.7243333572383852e-06  7.4029147396895950e-06  7.1025873579845311e-06  6.8157979885634911e-06  6.5721494735812632e-06  6.4290517712739818e-06  1.2786748433315366e-05  1.2790245667815415e-05  6.5186042084987031e-06  6.9623589093434341e-06  7.5784034275970303e-06  7.8720284219980486e-06  7.9976108306083806e-06  8.1622542414755735e-06  8.3417931767720436e-06  8.5018686884728043e-06  8.6277949936305192e-06  8.7056662281979493e-06  8.7249797326828331e-06  8.6908127163843385e-06  8.6185814751299914e-06  8.5239482530061235e-06  8.4186938323418896e-06  8.3114660893797148e-06  8.2088482988832323e-06  8.1155901160674357e-06  8.0345477559494880e-06  7.9668622478638286e-06  7.9125059503359517e-06  7.8709577400261624e-06  7.8417024277672986e-06  7.8244313413417711e-06  7.8190206160079725e-06  7.8254426295521198e-06  7.8437319296360244e-06  7.8740473845157205e-06  7.9167728913073173e-06  7.9725139451860842e-06  8.0418402999320772e-06  8.1247342099308954e-06  8.2199059177962593e-06  8.3244460097605981e-06  8.4335355167835583e-06  8.5401540000969183e-06  8.6349641171255452e-06  8.7037817955059655e-06  8.7328521242428107e-06  8.7083962071954908e-06  8.6504039634991111e-06  8.5361054178187217e-06  8.4150469090522362e-06  8.2619853036524386e-06  8.1444865999131124e-06  7.9792860197831254e-06  7.3989114284184495e-06  6.7790942257041984e-06  6.4510405932489996e-06  1.2775795329371811e-05  1.3254746033370433e-05  7.0523312622180393e-06  9.6587243651070469e-06  1.6972818959824356e-05  2.2061343049325801e-05  1.5509882009961724e-05  1.1126845490074367e-05  9.3604516677650432e-06  8.9054787565993556e-06  8.8841892957405510e-06  8.9053487167474898e-06  8.8808143899724033e-06  8.8040915562517488e-06  8.6957739133925409e-06  8.5734110719458164e-06  8.4468666646088479e-06  8.3230071320750427e-06  8.2076075729386522e-06  8.1051041973871919e-06  8.0179601445923687e-06  7.9465984634782267e-06  7.8901199123735986e-06  7.8472872923761626e-06  7.8171909417033342e-06  7.7994076771009782e-06  7.7938291978840192e-06  7.8004415611826036e-06  7.8192452569609338e-06  7.8503832596542319e-06  7.8943921290973164e-06  7.9523390246160498e-06  8.0255632967594622e-06  8.1149271941943544e-06  8.2197333671799334e-06  8.3375271874766431e-06  8.4639170834316376e-06  8.5938197890116352e-06  8.7186407441414251e-06  8.8211606974135863e-06  8.8910547764538061e-06  8.9131355809184295e-06  8.9930861720096949e-06  9.1329097031602557e-06  9.8280445968850988e-06  1.1331813166563723e-05  1.4766607216728224e-05  2.1725205983479151e-05  1.7880677072836949e-05  1.0249684636733966e-05  6.9282707222042812e-06  1.2829386444509187e-05  1.4412022368434001e-05  1.5750897176151889e-05  2.9594577084458739e-02  5.7051106012434627e-02  5.2999701818554075e-02  3.3296594394798470e-02  1.0399503273959455e-02  3.0891106218448424e-05  1.1737150506401378e-05  9.5127309049331549e-06  9.1950259990546743e-06  9.0832219135562337e-06  8.9420593705559858e-06  8.7860499024933063e-06  8.6303078962747386e-06  8.4786610781016798e-06  8.3349390615625889e-06  8.2041200187993606e-06  8.0906133020690445e-06  7.9965916944020463e-06  7.9214683763745799e-06  7.8630267627118510e-06  7.8190055311945591e-06  7.7880280767048682e-06  7.7696408154091860e-06  7.7638559071571811e-06  7.7707114329213380e-06  7.7901158633731576e-06  7.8220760414966847e-06  7.8672166408721433e-06  7.9271897865912638e-06  8.0044388459460106e-06  8.1011788358525319e-06  8.2174309311023012e-06  8.3509595560492469e-06  8.4982605094378172e-06  8.6565360187187499e-06  8.8163499390989332e-06  8.9747511437988592e-06  9.1180415054856225e-06  9.2705058039976248e-06  1.0093199112432745e-05  1.2222333989056889e-05  2.4193029547619085e-05  7.5868216108728823e-03  2.9014821472149916e-02  4.9967038120903473e-02  5.7473614997454160e-02  4.1218103659617276e-02  1.6266531607228334e-05  1.4355751618909783e-05  3.1705729249070414e-05  8.9862919430738791e-02  2.0993584551282232e-01  2.1427091331605025e-01  1.8039383972083550e-01  1.3260161803667231e-01  8.2152211873400049e-02  3.7720718440859301e-02  5.7722909787810937e-03  1.6365132499332754e-05  1.0308375132380361e-05  9.4086613755615934e-06  9.1111637223336332e-06  8.8870688486699138e-06  8.6937433637458838e-06  8.5135572528360516e-06  8.3466067243746504e-06  8.1973626642906506e-06  8.0709153688042052e-06  7.9695098973749954e-06  7.8910333603816394e-06  7.8311956608283495e-06  7.7862601193583629e-06  7.7543545531031267e-06  7.7352077448222414e-06  7.7291511078213495e-06  7.7363452076464667e-06  7.7565095613155126e-06  7.7892718994912181e-06  7.8351706436787702e-06  7.8965482929505624e-06  7.9774458388953974e-06  8.0823232647493567e-06  8.2123322510368674e-06  8.3639295179541410e-06  8.5360100446394088e-06  8.7239273992818871e-06  8.9396640944176615e-06  9.2099231495672915e-06  9.6034624253882232e-06  1.0797776740286284e-05  1.6333675645658763e-05  2.5686780775991932e-03  3.0950990556700711e-02  7.5973176806287443e-02  1.2830332973210765e-01  1.7548519020370965e-01  2.0846389276012620e-01  2.0800267587204535e-01  1.1423888089657416e-01  2.3320849723783080e-05  4.0112228898193780e-01  4.6419224693924821e-01  4.9580848020010876e-01  4.2304924375057057e-01  3.5491433796900251e-01  2.7487614391001536e-01  1.9379388172299433e-01  1.1964612262051257e-01  5.9892389991460480e-02  1.6891238169266139e-02  2.9137994839961416e-05  1.1332350237523705e-05  9.4253188002260509e-06  9.0106744574249818e-06  8.7662709507005514e-06  8.5518963436392568e-06  8.3578040428440064e-06  8.1862466039662014e-06  8.0443631578636099e-06  7.9354931572592236e-06  7.8548643527853328e-06  7.7947857832784706e-06  7.7493913852819157e-06  7.7164022847044466e-06  7.6961862092521146e-06  7.6897348408719311e-06  7.6974472237376531e-06  7.7187178177968929e-06  7.7523362808983163e-06  7.7983634079290262e-06  7.8598791490466584e-06  7.9433563848771367e-06  8.0567702852279401e-06  8.2041571712869459e-06  8.3751145765584886e-06  8.5802842035396009e-06  8.8043326419513991e-06  9.1428241582590402e-06  9.8906082239619267e-06  1.1806738591594791e-05  2.3666026549789724e-05  1.1703376071683182e-02  5.3521068628145693e-02  1.1622389643579024e-01  1.8977815112632332e-01  2.7061013944301587e-01  3.5079103079446217e-01  4.1782603743521057e-01  4.4813613701393756e-01  4.6922008337207155e-01  3.5714490119617359e-01  9.9992159595203911e-01  9.9067086869445176e-01  7.8644100135132611e-01  6.6342509707040898e-01  5.5675068237203484e-01  4.4317236463010523e-01  3.3546579981128227e-01  2.3493382669828011e-01  1.4683248940937541e-01  7.6666444026527086e-02  2.7318708362763972e-02  1.9224477625608990e-04  1.2617724867585182e-05  9.4652118419579363e-06  8.8938548282915984e-06  8.6008734152629037e-06  8.3713675225087862e-06  8.1704303734591686e-06  8.0088333210465177e-06  7.8931904908468772e-06  7.8128217740514890e-06  7.7544502219279278e-06  7.7091694343401241e-06  7.6746111297435833e-06  7.6527175115361601e-06  7.6456731578077063e-06  7.6542090536576567e-06  7.6773113439245724e-06  7.7121201758777382e-06  7.7573832027167020e-06  7.8169910065773483e-06  7.9010075081744405e-06  8.0221105622050927e-06  8.1966535490246984e-06  8.3925589448602128e-06  8.6541644169775325e-06  8.9939729022541395e-06  1.0121262287472379e-05  1.3255760067309375e-05  5.0096542089573042e-05  2.1550201942548090e-02  7.1527514924715041e-02  1.4388251364977928e-01  2.3109790759171242e-01  3.3165921366950729e-01  4.4148287547511367e-01  5.4402645152160756e-01  6.5578883513540276e-01  8.0496092888485216e-01  9.9931091773239777e-01  9.9976769613952687e-01  9.9998426059793144e-01  9.9998624874040665e-01  9.9995099409163923e-01  9.0650707820535559e-01  7.4441226810066630e-01  6.1527259104331611e-01  4.8868430268321572e-01  3.6900363128924152e-01  2.5993072722832722e-01  1.6593249557954748e-01  9.1191283406590454e-02  3.8484949729782933e-02  5.4911458658721077e-03  1.6182906651036110e-05  9.9742306134356148e-06  8.8064918340959723e-06  8.4324261644243758e-06  8.1644396927271927e-06  7.9684923148891990e-06  7.8458284674446325e-06  7.7682305436837842e-06  7.7138085133835395e-06  7.6687995515680778e-06  7.6312336130349026e-06  7.6065061067452084e-06  7.5985648549305277e-06  7.6083143475153782e-06  7.6349694848369469e-06  7.6725187452841113e-06  7.7166971599012334e-06  7.7729871382348091e-06  7.8563087491017269e-06  7.9870136057295868e-06  8.2191957856915959e-06  8.4921199816091657e-06  9.0909117902123828e-06  1.0527600632686671e-05  1.6012914040096207e-05  2.2587172251024700e-03  3.2624790907076692e-02  8.7375456179833083e-02  1.6319118633201660e-01  2.5701223544208368e-01  3.6641298824397728e-01  4.8810764861275047e-01  6.0967582594177649e-01  7.4106228172402544e-01  9.3992367054807957e-01  9.9996766107087331e-01  9.9998775150960251e-01  9.9997841473414473e-01  9.9998959789497277e-01  9.9999307961878503e-01  9.9998613597838737e-01  9.9994662598411566e-01  9.1115515786003121e-01  7.6765130974212614e-01  6.3629743703443564e-01  5.0822663962973036e-01  3.8676191947103522e-01  2.7653786266281205e-01  1.8219660198456691e-01  1.0665671089064342e-01  5.1989537755439234e-02  1.6025220485109504e-02  4.0915759003970165e-05  1.2727083858706880e-05  9.5029990252719879e-06  8.4947994084447329e-06  8.0856202248543308e-06  7.8921259497140371e-06  7.7861417760334229e-06  7.7201074613612027e-06  7.6658375290693098e-06  7.6184442491147447e-06  7.5877980587087463e-06  7.5784778830944695e-06  7.5906889612426344e-06  7.6262893175549110e-06  7.6755031098849874e-06  7.7316833415670043e-06  7.8090664017742829e-06  7.9379972124231214e-06  8.1774557411380735e-06  8.8059030757469408e-06  9.9354009339107685e-06  1.2585510000541892e-05  3.1503754900810760e-05  1.1621290664555412e-02  4.7147530380482187e-02  1.0430982691605319e-01  1.7948846730799239e-01  2.7422206800300819e-01  3.8518191596113072e-01  5.0815409786268906e-01  6.3615958190607991e-01  7.6462100192895177e-01  9.3914408741569966e-01  9.9995841814408948e-01  9.9998654343576476e-01  9.9999306828254131e-01  9.9998877565267841e-01  9.9998898962084115e-01  9.9999360209420229e-01  9.9998940172400941e-01  9.9997584921346494e-01  9.9984300724705133e-01  8.8360922697883060e-01  7.6320623418222089e-01  6.3857025832931569e-01  5.1537190442429681e-01  3.9799758899306564e-01  2.9174243548015183e-01  2.0089750636706530e-01  1.2770530946570985e-01  7.3231118768535788e-02  3.5911857864360547e-02  1.1542487079476749e-02  6.1298525988567353e-05  1.6555482492280724e-05  1.1662018783719237e-05  1.0116205481456633e-05  9.3762755784507092e-06  8.9690513392783791e-06  8.7019803695118223e-06  8.5282004155832180e-06  8.4445809159778520e-06  8.4259603002022078e-06  8.4643104680114772e-06  8.5802519320977683e-06  8.7587497511547269e-06  9.0027145001078179e-06  9.4079451407802622e-06  1.0138816083763167e-05  1.1605587548919802e-05  1.5973889918923313e-05  4.8611658000452945e-05  8.6291199141253078e-03  3.1048307239869680e-02  7.0171858754583497e-02  1.2598968918653003e-01  1.9873426731230748e-01  2.8992483336491687e-01  3.9732969831682696e-01  5.1562413853874922e-01  6.4050709850280341e-01  7.6246769704106865e-01  8.9713854283699701e-01  9.9988878084372612e-01  9.9997569377159645e-01  9.9998902506270437e-01  9.9999344090997233e-01  9.9998965122778649e-01  9.9997991919652840e-01  9.9999041337425110e-01  9.9998605737200397e-01  9.9997492307080449e-01  9.9992563014330460e-01  9.6140814170093769e-01  8.5595459274446939e-01  7.4858858206077994e-01  6.3446323186096665e-01  5.1979230769345430e-01  4.1070857270338884e-01  3.1241725031788581e-01  2.2864196757380048e-01  1.6107159527164228e-01  1.0939802337115839e-01  7.2251744466222650e-02  4.6694807054651857e-02  2.8552047098183118e-02  1.6349324814667082e-02  9.2736237968166647e-03  4.7141233824407628e-03  1.9027170289752104e-03  3.7182806933423317e-04  1.1723094511991362e-04  7.9802914576842027e-05  7.2377839472521717e-05  7.8321542346564439e-05  1.1071697710838227e-04  3.1481099657727486e-04  1.6819324926993554e-03  4.3092825645214246e-03  8.4948924899741242e-03  1.5070353409479971e-02  2.5486019238774259e-02  4.3013458753413607e-02  7.0287050281815616e-02  1.0828161892813372e-01  1.5978163569277784e-01  2.2715168136948816e-01  3.1147736808628490e-01  4.1068354643113258e-01  5.2068145387358644e-01  6.3631093374192449e-01  7.5171718133222087e-01  8.5934546451039961e-01  9.7072428571915725e-01  9.9992264511953877e-01  9.9997231413290599e-01  9.9998485496227929e-01  9.9998978969815722e-01  9.9998487666766911e-01  9.9978563772834705e-01  9.9995687468018757e-01  9.9995444202404959e-01  9.9993729577927148e-01  9.9986286399171653e-01  9.8199957958741690e-01  9.0857846188161606e-01  8.2987195957456772e-01  7.3435804553803585e-01  6.3213098553560620e-01  5.2945130674379115e-01  4.3260581606201876e-01  3.4638882633889151e-01  2.7365308322934756e-01  2.1527101307841484e-01  1.7031740744758875e-01  1.3671157408044407e-01  1.1246186944417466e-01  9.5709855746562933e-02  8.4062091144987527e-02  7.5745980535826860e-02  7.0094182001711261e-02  6.6319131441076581e-02  6.3807853298768299e-02  6.2306413208842712e-02  6.1789191447734419e-02  6.2105978443417718e-02  6.3340046863914659e-02  6.5771396365894977e-02  6.9593417895715992e-02  7.5161934358933896e-02  8.3338844528787592e-02  9.5207340240825361e-02  1.1235479233093190e-01  1.3661363357017672e-01  1.6975428498453601e-01  2.1434821984723676e-01  2.7304434859270438e-01  3.4639846751910808e-01  4.3328927766302305e-01  5.3082357744437036e-01  6.3438010812879164e-01  7.3770149638332605e-01  8.3377312098867351e-01  9.1655166740830463e-01  9.8198051918822393e-01  9.9982868155582227e-01  9.9992871831613372e-01  9.9995438827390071e-01  9.9996272924206364e-01  9.9993976843060095e-01  3.3926608506002959e-01  6.4695192144190272e-01  8.0602347441170707e-01  9.0163013164605244e-01  9.4196185639077579e-01  9.4474650222286605e-01  9.2243745295729695e-01  8.7657790104186217e-01  8.0797364241261438e-01  7.2660741426672759e-01  6.3898172466336345e-01  5.5232413201638197e-01  4.722911421