<?xml version="1.0"?>
<VTKFile type="UnstructuredGrid"  version="0.1"  >
<UnstructuredGrid>
<Piece  NumberOfPoints="2601" NumberOfCells="5000">
<Points>
<DataArray  type="Float64"  NumberOfComponents="3"  format="ascii">0 0 0  0.03 0 0  0.06 0 0  0.09 0 0  0.12 0 0  0.15 0 0  0.18 0 0  0.21 0 0  0.24 0 0  0.27 0 0  0.3 0 0  0.33 0 0  0.36 0 0  0.39 0 0  0.42 0 0  0.45 0 0  0.48 0 0  0.51 0 0  0.54 0 0  0.57 0 0  0.6 0 0  0.63 0 0  0.66 0 0  0.6899999999999999 0 0  0.72 0 0  0.75 0 0  0.78 0 0  0.8100000000000001 0 0  0.84 0 0  0.87 0 0  0.9 0 0  0.93 0 0  0.96 0 0  0.99 0 0  1.02 0 0  1.05 0 0  1.08 0 0  1.11 0 0  1.14 0 0  1.17 0 0  1.2 0 0  1.23 0 0  1.26 0 0  1.29 0 0  1.32 0 0  1.35 0 0  1.38 0 0  1.41 0 0  1.44 0 0  1.47 0 0  1.5 0 0  0 0.02 0  0.03 0.02 0  0.06 0.02 0  0.09 0.02 0  0.12 0.02 0  0.15 0.02 0  0.18 0.02 0  0.21 0.02 0  0.24 0.02 0  0.27 0.02 0  0.3 0.02 0  0.33 0.02 0  0.36 0.02 0  0.39 0.02 0  0.42 0.02 0  0.45 0.02 0  0.48 0.02 0  0.51 0.02 0  0.54 0.02 0  0.57 0.02 0  0.6 0.02 0  0.63 0.02 0  0.66 0.02 0  0.6899999999999999 0.02 0  0.72 0.02 0  0.75 0.02 0  0.78 0.02 0  0.8100000000000001 0.02 0  0.84 0.02 0  0.87 0.02 0  0.9 0.02 0  0.93 0.02 0  0.96 0.02 0  0.99 0.02 0  1.02 0.02 0  1.05 0.02 0  1.08 0.02 0  1.11 0.02 0  1.14 0.02 0  1.17 0.02 0  1.2 0.02 0  1.23 0.02 0  1.26 0.02 0  1.29 0.02 0  1.32 0.02 0  1.35 0.02 0  1.38 0.02 0  1.41 0.02 0  1.44 0.02 0  1.47 0.02 0  1.5 0.02 0  0 0.04 0  0.03 0.04 0  0.06 0.04 0  0.09 0.04 0  0.12 0.04 0  0.15 0.04 0  0.18 0.04 0  0.21 0.04 0  0.24 0.04 0  0.27 0.04 0  0.3 0.04 0  0.33 0.04 0  0.36 0.04 0  0.39 0.04 0  0.42 0.04 0  0.45 0.04 0  0.48 0.04 0  0.51 0.04 0  0.54 0.04 0  0.57 0.04 0  0.6 0.04 0  0.63 0.04 0  0.66 0.04 0  0.6899999999999999 0.04 0  0.72 0.04 0  0.75 0.04 0  0.78 0.04 0  0.8100000000000001 0.04 0  0.84 0.04 0  0.87 0.04 0  0.9 0.04 0  0.93 0.04 0  0.96 0.04 0  0.99 0.04 0  1.02 0.04 0  1.05 0.04 0  1.08 0.04 0  1.11 0.04 0  1.14 0.04 0  1.17 0.04 0  1.2 0.04 0  1.23 0.04 0  1.26 0.04 0  1.29 0.04 0  1.32 0.04 0  1.35 0.04 0  1.38 0.04 0  1.41 0.04 0  1.44 0.04 0  1.47 0.04 0  1.5 0.04 0  0 0.06 0  0.03 0.06 0  0.06 0.06 0  0.09 0.06 0  0.12 0.06 0  0.15 0.06 0  0.18 0.06 0  0.21 0.06 0  0.24 0.06 0  0.27 0.06 0  0.3 0.06 0  0.33 0.06 0  0.36 0.06 0  0.39 0.06 0  0.42 0.06 0  0.45 0.06 0  0.48 0.06 0  0.51 0.06 0  0.54 0.06 0  0.57 0.06 0  0.6 0.06 0  0.63 0.06 0  0.66 0.06 0  0.6899999999999999 0.06 0  0.72 0.06 0  0.75 0.06 0  0.78 0.06 0  0.8100000000000001 0.06 0  0.84 0.06 0  0.87 0.06 0  0.9 0.06 0  0.93 0.06 0  0.96 0.06 0  0.99 0.06 0  1.02 0.06 0  1.05 0.06 0  1.08 0.06 0  1.11 0.06 0  1.14 0.06 0  1.17 0.06 0  1.2 0.06 0  1.23 0.06 0  1.26 0.06 0  1.29 0.06 0  1.32 0.06 0  1.35 0.06 0  1.38 0.06 0  1.41 0.06 0  1.44 0.06 0  1.47 0.06 0  1.5 0.06 0  0 0.08 0  0.03 0.08 0  0.06 0.08 0  0.09 0.08 0  0.12 0.08 0  0.15 0.08 0  0.18 0.08 0  0.21 0.08 0  0.24 0.08 0  0.27 0.08 0  0.3 0.08 0  0.33 0.08 0  0.36 0.08 0  0.39 0.08 0  0.42 0.08 0  0.45 0.08 0  0.48 0.08 0  0.51 0.08 0  0.54 0.08 0  0.57 0.08 0  0.6 0.08 0  0.63 0.08 0  0.66 0.08 0  0.6899999999999999 0.08 0  0.72 0.08 0  0.75 0.08 0  0.78 0.08 0  0.8100000000000001 0.08 0  0.84 0.08 0  0.87 0.08 0  0.9 0.08 0  0.93 0.08 0  0.96 0.08 0  0.99 0.08 0  1.02 0.08 0  1.05 0.08 0  1.08 0.08 0  1.11 0.08 0  1.14 0.08 0  1.17 0.08 0  1.2 0.08 0  1.23 0.08 0  1.26 0.08 0  1.29 0.08 0  1.32 0.08 0  1.35 0.08 0  1.38 0.08 0  1.41 0.08 0  1.44 0.08 0  1.47 0.08 0  1.5 0.08 0  0 0.1 0  0.03 0.1 0  0.06 0.1 0  0.09 0.1 0  0.12 0.1 0  0.15 0.1 0  0.18 0.1 0  0.21 0.1 0  0.24 0.1 0  0.27 0.1 0  0.3 0.1 0  0.33 0.1 0  0.36 0.1 0  0.39 0.1 0  0.42 0.1 0  0.45 0.1 0  0.48 0.1 0  0.51 0.1 0  0.54 0.1 0  0.57 0.1 0  0.6 0.1 0  0.63 0.1 0  0.66 0.1 0  0.6899999999999999 0.1 0  0.72 0.1 0  0.75 0.1 0  0.78 0.1 0  0.8100000000000001 0.1 0  0.84 0.1 0  0.87 0.1 0  0.9 0.1 0  0.93 0.1 0  0.96 0.1 0  0.99 0.1 0  1.02 0.1 0  1.05 0.1 0  1.08 0.1 0  1.11 0.1 0  1.14 0.1 0  1.17 0.1 0  1.2 0.1 0  1.23 0.1 0  1.26 0.1 0  1.29 0.1 0  1.32 0.1 0  1.35 0.1 0  1.38 0.1 0  1.41 0.1 0  1.44 0.1 0  1.47 0.1 0  1.5 0.1 0  0 0.12 0  0.03 0.12 0  0.06 0.12 0  0.09 0.12 0  0.12 0.12 0  0.15 0.12 0  0.18 0.12 0  0.21 0.12 0  0.24 0.12 0  0.27 0.12 0  0.3 0.12 0  0.33 0.12 0  0.36 0.12 0  0.39 0.12 0  0.42 0.12 0  0.45 0.12 0  0.48 0.12 0  0.51 0.12 0  0.54 0.12 0  0.57 0.12 0  0.6 0.12 0  0.63 0.12 0  0.66 0.12 0  0.6899999999999999 0.12 0  0.72 0.12 0  0.75 0.12 0  0.78 0.12 0  0.8100000000000001 0.12 0  0.84 0.12 0  0.87 0.12 0  0.9 0.12 0  0.93 0.12 0  0.96 0.12 0  0.99 0.12 0  1.02 0.12 0  1.05 0.12 0  1.08 0.12 0  1.11 0.12 0  1.14 0.12 0  1.17 0.12 0  1.2 0.12 0  1.23 0.12 0  1.26 0.12 0  1.29 0.12 0  1.32 0.12 0  1.35 0.12 0  1.38 0.12 0  1.41 0.12 0  1.44 0.12 0  1.47 0.12 0  1.5 0.12 0  0 0.14 0  0.03 0.14 0  0.06 0.14 0  0.09 0.14 0  0.12 0.14 0  0.15 0.14 0  0.18 0.14 0  0.21 0.14 0  0.24 0.14 0  0.27 0.14 0  0.3 0.14 0  0.33 0.14 0  0.36 0.14 0  0.39 0.14 0  0.42 0.14 0  0.45 0.14 0  0.48 0.14 0  0.51 0.14 0  0.54 0.14 0  0.57 0.14 0  0.6 0.14 0  0.63 0.14 0  0.66 0.14 0  0.6899999999999999 0.14 0  0.72 0.14 0  0.75 0.14 0  0.78 0.14 0  0.8100000000000001 0.14 0  0.84 0.14 0  0.87 0.14 0  0.9 0.14 0  0.93 0.14 0  0.96 0.14 0  0.99 0.14 0  1.02 0.14 0  1.05 0.14 0  1.08 0.14 0  1.11 0.14 0  1.14 0.14 0  1.17 0.14 0  1.2 0.14 0  1.23 0.14 0  1.26 0.14 0  1.29 0.14 0  1.32 0.14 0  1.35 0.14 0  1.38 0.14 0  1.41 0.14 0  1.44 0.14 0  1.47 0.14 0  1.5 0.14 0  0 0.16 0  0.03 0.16 0  0.06 0.16 0  0.09 0.16 0  0.12 0.16 0  0.15 0.16 0  0.18 0.16 0  0.21 0.16 0  0.24 0.16 0  0.27 0.16 0  0.3 0.16 0  0.33 0.16 0  0.36 0.16 0  0.39 0.16 0  0.42 0.16 0  0.45 0.16 0  0.48 0.16 0  0.51 0.16 0  0.54 0.16 0  0.57 0.16 0  0.6 0.16 0  0.63 0.16 0  0.66 0.16 0  0.6899999999999999 0.16 0  0.72 0.16 0  0.75 0.16 0  0.78 0.16 0  0.8100000000000001 0.16 0  0.84 0.16 0  0.87 0.16 0  0.9 0.16 0  0.93 0.16 0  0.96 0.16 0  0.99 0.16 0  1.02 0.16 0  1.05 0.16 0  1.08 0.16 0  1.11 0.16 0  1.14 0.16 0  1.17 0.16 0  1.2 0.16 0  1.23 0.16 0  1.26 0.16 0  1.29 0.16 0  1.32 0.16 0  1.35 0.16 0  1.38 0.16 0  1.41 0.16 0  1.44 0.16 0  1.47 0.16 0  1.5 0.16 0  0 0.18 0  0.03 0.18 0  0.06 0.18 0  0.09 0.18 0  0.12 0.18 0  0.15 0.18 0  0.18 0.18 0  0.21 0.18 0  0.24 0.18 0  0.27 0.18 0  0.3 0.18 0  0.33 0.18 0  0.36 0.18 0  0.39 0.18 0  0.42 0.18 0  0.45 0.18 0  0.48 0.18 0  0.51 0.18 0  0.54 0.18 0  0.57 0.18 0  0.6 0.18 0  0.63 0.18 0  0.66 0.18 0  0.6899999999999999 0.18 0  0.72 0.18 0  0.75 0.18 0  0.78 0.18 0  0.8100000000000001 0.18 0  0.84 0.18 0  0.87 0.18 0  0.9 0.18 0  0.93 0.18 0  0.96 0.18 0  0.99 0.18 0  1.02 0.18 0  1.05 0.18 0  1.08 0.18 0  1.11 0.18 0  1.14 0.18 0  1.17 0.18 0  1.2 0.18 0  1.23 0.18 0  1.26 0.18 0  1.29 0.18 0  1.32 0.18 0  1.35 0.18 0  1.38 0.18 0  1.41 0.18 0  1.44 0.18 0  1.47 0.18 0  1.5 0.18 0  0 0.2 0  0.03 0.2 0  0.06 0.2 0  0.09 0.2 0  0.12 0.2 0  0.15 0.2 0  0.18 0.2 0  0.21 0.2 0  0.24 0.2 0  0.27 0.2 0  0.3 0.2 0  0.33 0.2 0  0.36 0.2 0  0.39 0.2 0  0.42 0.2 0  0.45 0.2 0  0.48 0.2 0  0.51 0.2 0  0.54 0.2 0  0.57 0.2 0  0.6 0.2 0  0.63 0.2 0  0.66 0.2 0  0.6899999999999999 0.2 0  0.72 0.2 0  0.75 0.2 0  0.78 0.2 0  0.8100000000000001 0.2 0  0.84 0.2 0  0.87 0.2 0  0.9 0.2 0  0.93 0.2 0  0.96 0.2 0  0.99 0.2 0  1.02 0.2 0  1.05 0.2 0  1.08 0.2 0  1.11 0.2 0  1.14 0.2 0  1.17 0.2 0  1.2 0.2 0  1.23 0.2 0  1.26 0.2 0  1.29 0.2 0  1.32 0.2 0  1.35 0.2 0  1.38 0.2 0  1.41 0.2 0  1.44 0.2 0  1.47 0.2 0  1.5 0.2 0  0 0.22 0  0.03 0.22 0  0.06 0.22 0  0.09 0.22 0  0.12 0.22 0  0.15 0.22 0  0.18 0.22 0  0.21 0.22 0  0.24 0.22 0  0.27 0.22 0  0.3 0.22 0  0.33 0.22 0  0.36 0.22 0  0.39 0.22 0  0.42 0.22 0  0.45 0.22 0  0.48 0.22 0  0.51 0.22 0  0.54 0.22 0  0.57 0.22 0  0.6 0.22 0  0.63 0.22 0  0.66 0.22 0  0.6899999999999999 0.22 0  0.72 0.22 0  0.75 0.22 0  0.78 0.22 0  0.8100000000000001 0.22 0  0.84 0.22 0  0.87 0.22 0  0.9 0.22 0  0.93 0.22 0  0.96 0.22 0  0.99 0.22 0  1.02 0.22 0  1.05 0.22 0  1.08 0.22 0  1.11 0.22 0  1.14 0.22 0  1.17 0.22 0  1.2 0.22 0  1.23 0.22 0  1.26 0.22 0  1.29 0.22 0  1.32 0.22 0  1.35 0.22 0  1.38 0.22 0  1.41 0.22 0  1.44 0.22 0  1.47 0.22 0  1.5 0.22 0  0 0.24 0  0.03 0.24 0  0.06 0.24 0  0.09 0.24 0  0.12 0.24 0  0.15 0.24 0  0.18 0.24 0  0.21 0.24 0  0.24 0.24 0  0.27 0.24 0  0.3 0.24 0  0.33 0.24 0  0.36 0.24 0  0.39 0.24 0  0.42 0.24 0  0.45 0.24 0  0.48 0.24 0  0.51 0.24 0  0.54 0.24 0  0.57 0.24 0  0.6 0.24 0  0.63 0.24 0  0.66 0.24 0  0.6899999999999999 0.24 0  0.72 0.24 0  0.75 0.24 0  0.78 0.24 0  0.8100000000000001 0.24 0  0.84 0.24 0  0.87 0.24 0  0.9 0.24 0  0.93 0.24 0  0.96 0.24 0  0.99 0.24 0  1.02 0.24 0  1.05 0.24 0  1.08 0.24 0  1.11 0.24 0  1.14 0.24 0  1.17 0.24 0  1.2 0.24 0  1.23 0.24 0  1.26 0.24 0  1.29 0.24 0  1.32 0.24 0  1.35 0.24 0  1.38 0.24 0  1.41 0.24 0  1.44 0.24 0  1.47 0.24 0  1.5 0.24 0  0 0.26 0  0.03 0.26 0  0.06 0.26 0  0.09 0.26 0  0.12 0.26 0  0.15 0.26 0  0.18 0.26 0  0.21 0.26 0  0.24 0.26 0  0.27 0.26 0  0.3 0.26 0  0.33 0.26 0  0.36 0.26 0  0.39 0.26 0  0.42 0.26 0  0.45 0.26 0  0.48 0.26 0  0.51 0.26 0  0.54 0.26 0  0.57 0.26 0  0.6 0.26 0  0.63 0.26 0  0.66 0.26 0  0.6899999999999999 0.26 0  0.72 0.26 0  0.75 0.26 0  0.78 0.26 0  0.8100000000000001 0.26 0  0.84 0.26 0  0.87 0.26 0  0.9 0.26 0  0.93 0.26 0  0.96 0.26 0  0.99 0.26 0  1.02 0.26 0  1.05 0.26 0  1.08 0.26 0  1.11 0.26 0  1.14 0.26 0  1.17 0.26 0  1.2 0.26 0  1.23 0.26 0  1.26 0.26 0  1.29 0.26 0  1.32 0.26 0  1.35 0.26 0  1.38 0.26 0  1.41 0.26 0  1.44 0.26 0  1.47 0.26 0  1.5 0.26 0  0 0.28 0  0.03 0.28 0  0.06 0.28 0  0.09 0.28 0  0.12 0.28 0  0.15 0.28 0  0.18 0.28 0  0.21 0.28 0  0.24 0.28 0  0.27 0.28 0  0.3 0.28 0  0.33 0.28 0  0.36 0.28 0  0.39 0.28 0  0.42 0.28 0  0.45 0.28 0  0.48 0.28 0  0.51 0.28 0  0.54 0.28 0  0.57 0.28 0  0.6 0.28 0  0.63 0.28 0  0.66 0.28 0  0.6899999999999999 0.28 0  0.72 0.28 0  0.75 0.28 0  0.78 0.28 0  0.8100000000000001 0.28 0  0.84 0.28 0  0.87 0.28 0  0.9 0.28 0  0.93 0.28 0  0.96 0.28 0  0.99 0.28 0  1.02 0.28
[...]
<PointData  Scalars="ControlVisualisation"> 
<DataArray  type="Float64"  Name="ControlVisualisation"  format="ascii">2.5181336960600046e-04  1.6806559821103570e-04  1.6868786506165761e-04  1.6996715263312612e-04  1.7193777924891240e-04  1.7438859175627176e-04  1.7697987346801822e-04  1.7939072308825740e-04  1.8140479605080256e-04  1.8292604448350824e-04  1.8394913169607837e-04  1.8452197349756139e-04  1.8471930578245604e-04  1.8462597567430516e-04  1.8432549751448032e-04  1.8389266733922317e-04  1.8338994274777882e-04  1.8286660763968575e-04  1.8235954007162931e-04  1.8189480080028805e-04  1.8148964795990718e-04  1.8115471101183642e-04  1.8089604954862117e-04  1.8071685595490893e-04  1.8061867867070642e-04  1.8060217656636757e-04  1.8066748904191281e-04  1.8081429887188371e-04  1.8104160108243443e-04  1.8134711721374972e-04  1.8172626032312891e-04  1.8217060116252669e-04  1.8266590724634162e-04  1.8318995040163006e-04  1.8371034502227764e-04  1.8418270425331207e-04  1.8454954101629058e-04  1.8474059698664051e-04  1.8467551386754574e-04  1.8426970315051203e-04  1.8344291987237973e-04  1.8213265944703037e-04  1.8031792078898622e-04  1.7805452463043773e-04  1.7551011742853473e-04  1.7296222449270410e-04  1.7074736607170074e-04  1.6915613954676778e-04  1.6827409681501420e-04  1.6792764582986938e-04  5.0336299910174874e-04  1.6796910388627639e-04  8.4139078497051390e-05  8.4744716882399309e-05  8.6091536915795095e-05  8.8308702468348907e-05  9.1255979628897932e-05  9.4588588271798471e-05  9.7895141760271921e-05  1.0082385446533310e-04  1.0315470612400204e-04  1.0480262936428442e-04  1.0578416559085424e-04  1.0618165425589281e-04  1.0611304536608436e-04  1.0570655978221365e-04  1.0508215365671911e-04  1.0434128862434205e-04  1.0356356129276292e-04  1.0280748238126778e-04  1.0211329387567000e-04  1.0150664995250307e-04  1.0100249336423894e-04  1.0060862547755217e-04  1.0032859775980173e-04  1.0016376242134901e-04  1.0011453533005692e-04  1.0018104071765201e-04  1.0036329439730218e-04  1.0066097784355923e-04  1.0107272218811886e-04  1.0159472778452926e-04  1.0221855899207129e-04  1.0292809912604509e-04  1.0369586794632927e-04  1.0447907707268888e-04  1.0521590692866813e-04  1.0582288267652954e-04  1.0619482940384912e-04  1.0620993103262061e-04  1.0574142592359638e-04  1.0467551532546852e-04  1.0293488309904810e-04  1.0051303724833182e-04  9.7513102396071859e-05  9.4179819505381382e-05  9.0876754319043482e-05  8.8000014156282860e-05  8.5878562333858643e-05  8.4636350817033580e-05  8.4103528492285109e-05  1.6790788649682283e-04  1.6815618088213171e-04  8.4329839365114060e-05  8.5116092784388398e-05  8.6833041588569584e-05  8.9602452083967145e-05  9.3229509551603573e-05  9.7310786127442333e-05  1.0135659753736545e-04  1.0493821905366306e-04  1.0778649437991771e-04  1.0979142177938765e-04  1.1096294261795401e-04  1.1139686436945365e-04  1.1124141370617593e-04  1.1066220321103625e-04  1.0981478342690355e-04  1.0882992197603213e-04  1.0780916665190839e-04  1.0682610214448510e-04  1.0593021373082402e-04  1.0515189690006872e-04  1.0450779056364925e-04  1.0400569748854014e-04  1.0364849783544349e-04  1.0343681819025870e-04  1.0337058743393168e-04  1.0344978973621724e-04  1.0367468456202287e-04  1.0404558548420274e-04  1.0456206846109995e-04  1.0522130999947370e-04  1.0601525210525057e-04  1.0692651938061358e-04  1.0792342284357729e-04  1.0895456763556788e-04  1.0994363983825784e-04  1.1078553950004752e-04  1.1134571186923625e-04  1.1146711506209101e-04  1.1098586894822503e-04  1.0976015075104426e-04  1.0769501753904018e-04  1.0478211527625440e-04  1.0113786926631410e-04  9.7057896888170356e-05  9.2994931606334310e-05  8.9402977318441936e-05  8.6667379111792715e-05  8.5009243532665211e-05  8.4286262328865145e-05  1.6804297453929250e-04  1.6833824159531919e-04  8.4603956535423612e-05  8.5703038306259521e-05  8.7854504158739539e-05  9.1012914570387429e-05  9.4895608834403945e-05  9.9108786996218804e-05  1.0314733138306024e-04  1.0660427896611148e-04  1.0927648228520178e-04  1.1109669088573729e-04  1.1208525027803965e-04  1.1234132439663918e-04  1.1201974325072437e-04  1.1129244898973878e-04  1.1031785240535925e-04  1.0922684388442458e-04  1.0811997345990509e-04  1.0706934140354180e-04  1.0612236692473383e-04  1.0530676227055275e-04  1.0463623018338223e-04  1.0411593657544403e-04  1.0374680530812621e-04  1.0352825437390141e-04  1.0345960850226447e-04  1.0354068454159823e-04  1.0377195439202673e-04  1.0415441975245700e-04  1.0468901185469462e-04  1.0537505687798591e-04  1.0620731291626195e-04  1.0717144882698856e-04  1.0823857034771959e-04  1.0935953012243931e-04  1.1045979716619655e-04  1.1143515872537354e-04  1.1214964788475205e-04  1.1244152553440552e-04  1.1214105466974584e-04  1.1111331108208643e-04  1.0925098402260659e-04  1.0651772152814401e-04  1.0298084473473944e-04  9.8873961852527083e-05  9.4674603886110790e-05  9.0813811692460450e-05  8.7636728561292255e-05  8.5505808205429409e-05  8.4504116098103112e-05  1.6823274101433912e-04  1.6830510974647384e-04  8.4944152550435275e-05  8.6885643694821938e-05  8.9979572396947386e-05  9.3649138800316913e-05  9.7690539324474032e-05  1.0192058580082018e-04  1.0573946068845300e-04  1.0882375752446519e-04  1.1111724470951021e-04  1.1259759082347846e-04  1.1327575061944067e-04  1.1324672421112113e-04  1.1267398885441466e-04  1.1173601934905112e-04  1.1059044039505869e-04  1.0936376773415307e-04  1.0815209954966074e-04  1.0702363648505452e-04  1.0602167189598988e-04  1.0516912078690596e-04  1.0447471283981637e-04  1.0393937105036956e-04  1.0356106753648084e-04  1.0333753745593347e-04  1.0326733266920536e-04  1.0335006051891685e-04  1.0358642907339589e-04  1.0397829841845297e-04  1.0452847137567832e-04  1.0523949442537546e-04  1.0611059545405995e-04  1.0713245638726766e-04  1.0828088100842520e-04  1.0951113289048565e-04  1.1075344437972654e-04  1.1190699193300241e-04  1.1283807017586729e-04  1.1338207800289756e-04  1.1336943542727138e-04  1.1266492975313630e-04  1.1116187623484101e-04  1.0881661763587870e-04  1.0568399429152436e-04  1.0172182164520378e-04  9.7511173348849579e-05  9.3557449556053461e-05  8.9778167587071790e-05  8.6571271042712737e-05  8.4688595210337099e-05  1.6830308697416468e-04  1.6834990004743931e-04  8.5862564796046072e-05  9.1691299985426447e-05  9.9788744794597402e-05  1.0374932532003651e-04  1.0543578646666242e-04  1.0753092289489955e-04  1.0985837802408188e-04  1.1196310899851563e-04  1.1360640722002400e-04  1.1460435048127072e-04  1.1485202428140941e-04  1.1442525054591072e-04  1.1350673064986561e-04  1.1228521745502522e-04  1.1091329822310347e-04  1.0950850956612837e-04  1.0816012424134830e-04  1.0693136587057784e-04  1.0586017088054148e-04  1.0496261902693274e-04  1.0424009995201577e-04  1.0368741860440330e-04  1.0329857251928490e-04  1.0306926717516365e-04  1.0299724504107702e-04  1.0308190720937949e-04  1.0332415462758565e-04  1.0372673374869359e-04  1.0429473388208050e-04  1.0503509898648779e-04  1.0595354032656895e-04  1.0704809473561314e-04  1.0830095153824890e-04  1.0967355536608673e-04  1.1110180874224890e-04  1.1249112565388850e-04  1.1372040334833493e-04  1.1461268585052528e-04  1.1498939404788373e-04  1.1467261623880502e-04  1.1388202035199185e-04  1.1240504061527761e-04  1.1080772325838986e-04  1.0883881663683429e-04  1.0733955896214766e-04  1.0514851592827026e-04  9.7483408055572935e-05  8.9298380437092620e-05  8.4979891147181751e-05  1.6816012757318337e-04  1.7431556642512444e-04  9.2849992343169515e-05  1.2721937855483727e-04  2.2239706436832571e-04  2.8742976512538093e-04  2.0451775141776585e-04  1.4696715036693878e-04  1.2349386435779087e-04  1.1740342603466625e-04  1.1702261689140367e-04  1.1721933500672092e-04  1.1687481683083979e-04  1.1590759185045447e-04  1.1453250583593083e-04  1.1295017663786221e-04  1.1129532703715839e-04  1.0966877182986374e-04  1.0815055697995033e-04  1.0679878291138563e-04  1.0564527308667463e-04  1.0469665511299750e-04  1.0394363508684660e-04  1.0337247104738374e-04  1.0297218802848242e-04  1.0273641288701405e-04  1.0266230403148933e-04  1.0274914502615172e-04  1.0299786484226832e-04  1.0341182603823712e-04  1.0399852323811980e-04  1.0477057104232324e-04  1.0574288364141799e-04  1.0692429130344279e-04  1.0830488012296283e-04  1.0985308553730995e-04  1.1151128816170420e-04  1.1320504484977660e-04  1.1482186706693549e-04  1.1615388348721176e-04  1.1708397987637186e-04  1.1740707178562966e-04  1.1839596525957912e-04  1.2038043614869515e-04  1.2957172199292889e-04  1.4953178172004718e-04  1.9516290784255262e-04  2.8474295861456435e-04  2.3449259490780541e-04  1.3484073100660478e-04  9.1202413365442270e-05  1.6886372224419089e-04  1.8951709601763996e-04  2.0588450068126363e-04  2.9811878366571707e-02  5.7426040676196631e-02  5.3478370900980100e-02  3.3794775340022655e-02  1.0914282915507216e-02  3.9958991231825528e-04  1.5541401154715235e-04  1.2559176937669626e-04  1.2103937177711198e-04  1.1948058176214494e-04  1.1771280309940019e-04  1.1574312867815173e-04  1.1372139431578749e-04  1.1172786201615125e-04  1.0983511312516400e-04  1.0811257233320769e-04  1.0661506786976456e-04  1.0536869358161183e-04  1.0436679155700080e-04  1.0358416810011678e-04  1.0299526344776749e-04  1.0258337025253951e-04  1.0234058461039403e-04  1.0226414166508267e-04  1.0235342473315282e-04  1.0260905093346703e-04  1.0303420624279131e-04  1.0363830571350857e-04  1.0444089932219746e-04  1.0546981833397616e-04  1.0675024700040875e-04  1.0828171488963404e-04  1.1003868708776691e-04  1.1197661436730078e-04  1.1404365141335298e-04  1.1610745240225753e-04  1.1816217180441439e-04  1.2010308326834263e-04  1.2223544532126730e-04  1.3295373590952808e-04  1.6144398112102404e-04  3.2010398692556332e-04  8.2496940899290591e-03  2.9503310711982519e-02  5.0468402816158282e-02  5.7878389184134897e-02  4.1551150601936301e-02  2.1164705507800282e-04  1.8829192155852249e-04  4.1397319480204493e-04  8.9924490894386824e-02  2.1028352911172379e-01  2.1468237365767276e-01  1.8087643373302534e-01  1.3310489330820635e-01  8.2706204225665547e-02  3.8356089185548690e-02  6.5783277070273656e-03  2.1808886140005192e-04  1.3614188059544267e-04  1.2375016538917122e-04  1.1995875922605456e-04  1.1712899979790443e-04  1.1459058918581641e-04  1.1220245317598908e-04  1.0999737862595373e-04  1.0803246447229588e-04  1.0636507277401305e-04  1.0501891873089459e-04  1.0396743958184086e-04  1.0316068911277916e-04  1.0255688503653591e-04  1.0213362163373480e-04  1.0188313499149469e-04  1.0180404249785454e-04  1.0189619492115215e-04  1.0215936276050349e-04  1.0259494565317874e-04  1.0321262203129431e-04  1.0403951892027463e-04  1.0512178670069652e-04  1.0651142324872305e-04  1.0822207124270586e-04  1.1021830596191078e-04  1.1248931791229638e-04  1.1497079659037425e-04  1.1772237113370512e-04  1.2123662558942109e-04  1.2667597149372529e-04  1.4261009890878239e-04  2.1674425360943410e-04  3.6931392505944569e-03  3.1627590123652558e-02  7.6604221337509604e-02  1.2882574343525807e-01  1.7602486703755293e-01  2.0890417966521366e-01  2.0823352007447052e-01  1.1428948068700891e-01  3.0563211809095706e-04  4.0289998117184017e-01  4.6464310822395560e-01  4.9587885114719610e-01  4.2345390288947587e-01  3.5529553650143675e-01  2.7550413450505917e-01  1.9444995158481129e-01  1.2032110011711113e-01  6.0584884499743856e-02  1.7572185179491346e-02  3.8064397054187870e-04  1.4960719073358472e-04  1.2448685230537611e-04  1.1890741021959745e-04  1.1559448697950523e-04  1.1271979681388845e-04  1.1015019697286008e-04  1.0789565995721858e-04  1.0602850317891090e-04  1.0458131689393214e-04  1.0349344738404847e-04  1.0267426123910378e-04  1.0206025705414916e-04  1.0162544113113161e-04  1.0136583669605747e-04  1.0128354019847134e-04  1.0137939724593219e-04  1.0165168681412911e-04  1.0209732882669002e-04  1.0272219669406727e-04  1.0355994887334278e-04  1.0468409802034614e-04  1.0618857114382862e-04  1.0812161030191724e-04  1.1037101441609529e-04  1.1309215973727439e-04  1.1613651514147611e-04  1.2041802915419156e-04  1.3035191285432288e-04  1.5633466497698225e-04  3.1558841110690514e-04  1.2481669365829479e-02  5.4279797480722931e-02  1.1692246489618811e-01  1.9061134983732086e-01  2.7126142991194108e-01  3.5139829417859636e-01  4.1794757204913124e-01  4.4886777412874135e-01  4.7046456290628158e-01  3.5711242598740023e-01  9.9898975813911306e-01  9.8406462065741085e-01  7.8760129813923951e-01  6.6325689438781499e-01  5.5719236909712211e-01  4.4363519846146066e-01  3.3613479081918041e-01  2.3571774979600202e-01  1.4760593660920115e-01  7.7468582812086198e-02  2.8000340718082405e-02  1.3253426398958184e-03  1.6799684290913673e-04  1.2550068232909130e-04  1.1738011173935225e-04  1.1338359052762964e-04  1.1032982982490105e-04  1.0769915282107554e-04  1.0558097885712199e-04  1.0404081058700270e-04  1.0294446895984314e-04  1.0213201562832039e-04  1.0151281599294380e-04  1.0106403947276634e-04  1.0079230610620650e-04  1.0070587736403794e-04  1.0080714241939378e-04  1.0109206972502670e-04  1.0155011845642968e-04  1.0217422033018919e-04  1.0300113787368647e-04  1.0414403041678790e-04  1.0575589726220043e-04  1.0803288242304278e-04  1.1059647523055044e-04  1.1410388807192160e-04  1.1896420187005520e-04  1.3325493891714021e-04  1.7541830650208198e-04  6.4301405251888824e-04  2.2376415839612942e-02  7.2368106421688880e-02  1.4481028339993010e-01  2.3204110894840704e-01  3.3234234904514853e-01  4.4201011384355243e-01  5.4431645058288958e-01  6.5577495458453361e-01  8.0624697873658191e-01  9.9330697996610628e-01  9.9699558003692501e-01  9.9979308493482710e-01  9.9981980980734808e-01  9.9936527620593341e-01  9.0615356898144694e-01  7.4463492062256975e-01  6.1567968735112200e-01  4.8914478067240857e-01  3.6973326822259855e-01  2.6079338049878747e-01  1.6678124240232453e-01  9.2042952887389354e-02  3.9252010417323978e-02  6.3699541350083332e-03  2.1788708056424321e-04  1.3241920409666719e-04  1.1630977995936622e-04  1.1117906759959648e-04  1.0765595581914097e-04  1.0509183523034016e-04  1.0344916363314414e-04  1.0237382823258232e-04  1.0158405010073643e-04  1.0095539710234832e-04  1.0048210942681337e-04  1.0019146634313721e-04  1.0009943538499602e-04  1.0020987731588337e-04  1.0051653294815310e-04  1.0100399986220437e-04  1.0163169725281140e-04  1.0243768895585941e-04  1.0358995623266954e-04  1.0534761774200786e-04  1.0837342138324729e-04  1.1196919255162471e-04  1.2012746340873453e-04  1.4005318456792681e-04  2.1420007145257593e-04  3.1992955076272740e-03  3.3536598871127400e-02  8.8323269218228487e-02  1.6426719478734272e-01  2.5797591911181950e-01  3.6711525876215623e-01  4.8866439147590812e-01  6.0996147682878654e-01  7.4157660912439416e-01  9.3930294000432868e-01  9.9957586089957395e-01  9.9983925422135367e-01  9.9971790070303423e-01  9.9986312309461833e-01  9.9990889261283877e-01  9.9981775377784465e-01  9.9930528698736987e-01  9.1128345810674183e-01  7.6775852260096700e-01  6.3673277150487495e-01  5.0875137954605920e-01  3.8749473307655158e-01  2.7744458355068335e-01  1.8307971751595337e-01  1.0751555517467423e-01  5.2900457457840749e-02  1.6752035967780188e-02  5.3526088836461068e-04  1.6956592917808148e-04  1.2597657471564424e-04  1.1236280793633556e-04  1.0684107101081956e-04  1.0420877466535942e-04  1.0273031698441612e-04  1.0173120432654411e-04  1.0094920572600932e-04  1.0036938400119572e-04  1.0002427130824154e-04  9.9921357961387712e-05  1.0006162021073653e-04  1.0044622781061092e-04  1.0108528990837881e-04  1.0190960269165844e-04  1.0303210438295913e-04  1.0482854015197688e-04  1.0811805889121792e-04  1.1645688443030086e-04  1.3126803000130364e-04  1.6741635907091028e-04  4.2592372812544712e-04  1.2599376505380707e-02  4.8076511310021643e-02  1.0520912488185095e-01  1.8070602107341310e-01  2.7522858658809451e-01  3.8593160915578967e-01  5.0875926848417985e-01  6.3650098167912916e-01  7.6512318505078991e-01  9.3860734514041244e-01  9.9945580514567345e-01  9.9982309174804673e-01  9.9990874948074726e-01  9.9985233126414297e-01  9.9985513286162164e-01  9.9991574737983657e-01  9.9986051641398677e-01  9.9968317425217645e-01  9.9799739406914223e-01  8.8404026556380544e-01  7.6347907178297614e-01  6.3901317469457319e-01  5.1591666777833411e-01  3.9873310982211885e-01  2.9266511035036347e-01  2.0185040696688522e-01  1.2861816230928497e-01  7.4125495800137914e-02  3.6746704720000384e-02  1.2303124715164187e-02  7.4252021001829202e-04  2.2126238390967882e-04  1.5555257827458660e-04  1.3447225263303077e-04  1.2441795570923653e-04  1.1869612484568871e-04  1.1510364176413099e-04  1.1299813010242127e-04  1.1194707310121192e-04  1.1169472976856550e-04  1.1216964491664945e-04  1.1345554009188921e-04  1.1584112155014129e-04  1.1936374457667767e-04  1.2492943758410602e-04  1.3487629655165999e-04  1.5482162214728513e-04  2.1431177784923163e-04  6.1859339749299671e-04  9.3560965059612689e-03  3.2071749743365525e-02  7.1179256130605273e-02  1.2706723535212222e-01  1.9997049373726955e-01  2.9098885105315075e-01  3.9807721629686704e-01  5.1631864762683921e-01  6.4092114190042460e-01  7.6294822943169194e-01  8.9763568723073062e-01  9.9856409559092207e-01  9.9968089233330037e-01  9.9985557612654663e-01  9.9991363014445567e-01  9.9986382216108616e-01  9.9973636127652077e-01  9.9987386408144330e-01  9.9981656571018307e-01  9.9967069451779633e-01  9.9904513694193009e-01  9.6029639057593696e-01  8.5600458868140039e-01  7.4909534459996241e-01  6.3490731046583204e-01  5.2035790297847562e-01  4.1144618424557339e-01  3.1335493273127252e-01  2.2964190327663409e-01  1.6202637344280818e-01  1.1027314811247806e-01  7.3084234317810859e-02  4.7478501232634064e-02  2.9247550459624683e-02  1.6960238866304055e-02  9.9964229081210363e-03  5.5448025043747257e-03  2.9803891941146705e-03  1.6388248327963732e-03  1.0946864258374251e-03  8.9699609285887733e-04  8.4262117713132837e-04  8.8788669145198112e-04  1.0677949899945455e-03  1.5666361415403467e-03  2.8191465481428005e-03  5.1579493440575743e-03  9.2771252631545249e-03  1.5698454895511051e-02  2.6268399501028390e-02  4.4000995663474374e-02  7.1168879541483182e-02  1.0927278455549326e-01  1.6097485180915225e-01  2.2838415106113075e-01  3.1250262906490178e-01  4.1147887374436176e-01  5.2136109013899401e-01  6.3696903021506213e-01  7.5192501619362873e-01  8.6037239195515869e-01  9.6844825408656232e-01  9.9899995825794352e-01  9.9963659222763923e-01  9.9980075272545310e-01  9.9986567283833450e-01  9.9980113709820984e-01  9.9714183864731087e-01  9.9943740549178872e-01  9.9940361314396142e-01  9.9918299103170372e-01  9.9826260706601389e-01  9.7732473685580623e-01  9.0916419763991707e-01  8.3003539070809773e-01  7.3484381039265523e-01  6.3262913282299305e-01  5.3000938073558956e-01  4.3332951403563102e-01  3.4729531176673978e-01  2.7463869815302150e-01  2.1621766235289155e-01  1.7117473581854958e-01  1.3749268175061380e-01  1.1319480827302386e-01  9.6375119955950564e-02  8.4714398905796851e-02  7.6439980393650769e-02  7.0783774781480485e-02  6.6967188586360915e-02  6.4478022023013629e-02  6.3071940170263144e-02  6.2578346862417339e-02  6.2917486333150141e-02  6.4153135431614591e-02  6.6497871850489346e-02  7.0272974544220296e-02  7.5882460315887398e-02  8.4090652575766672e-02  9.5975593024455116e-02  1.1316203678600489e-01  1.3753873658827892e-01  1.7083353264548043e-01  2.1556417935149133e-01  2.7423464965241462e-01  3.4738772167085008e-01  4.3409571548360310e-01  5.3152256940036158e-01  6.3503936002848038e-01  7.3820308801487267e-01  8.3403511828963062e-01  9.1665042917903794e-01  9.7752712329238856e-01  9.9785590237364830e-01  9.9907318670787415e-01  9.9940277160674773e-01  9.9951172755248363e-01  9.9921242286375356e-01  3.3926729971440972e-01  6.4706970168362266e-01  8.0538973565465444e-01  9.0069274121060194e-01  9.4043202592086050e-01  9.4418421085842175e-01  9.2234174832784765e-01  8.7639005257879821e-01  8.0842802302173011e-01  7.2707149529344672e-01  6.3948205160825500e-01  5.5285354884908888e-01  4.729353174