<?xml version="1.0"?>
<VTKFile type="UnstructuredGrid"  version="0.1"  >
<UnstructuredGrid>
<Piece  NumberOfPoints="2601" NumberOfCells="5000">
<Points>
<DataArray  type="Float64"  NumberOfComponents="3"  format="ascii">0 0 0  0.03 0 0  0.06 0 0  0.09 0 0  0.12 0 0  0.15 0 0  0.18 0 0  0.21 0 0  0.24 0 0  0.27 0 0  0.3 0 0  0.33 0 0  0.36 0 0  0.39 0 0  0.42 0 0  0.45 0 0  0.48 0 0  0.51 0 0  0.54 0 0  0.57 0 0  0.6 0 0  0.63 0 0  0.66 0 0  0.6899999999999999 0 0  0.72 0 0  0.75 0 0  0.78 0 0  0.8100000000000001 0 0  0.84 0 0  0.87 0 0  0.9 0 0  0.93 0 0  0.96 0 0  0.99 0 0  1.02 0 0  1.05 0 0  1.08 0 0  1.11 0 0  1.14 0 0  1.17 0 0  1.2 0 0  1.23 0 0  1.26 0 0  1.29 0 0  1.32 0 0  1.35 0 0  1.38 0 0  1.41 0 0  1.44 0 0  1.47 0 0  1.5 0 0  0 0.02 0  0.03 0.02 0  0.06 0.02 0  0.09 0.02 0  0.12 0.02 0  0.15 0.02 0  0.18 0.02 0  0.21 0.02 0  0.24 0.02 0  0.27 0.02 0  0.3 0.02 0  0.33 0.02 0  0.36 0.02 0  0.39 0.02 0  0.42 0.02 0  0.45 0.02 0  0.48 0.02 0  0.51 0.02 0  0.54 0.02 0  0.57 0.02 0  0.6 0.02 0  0.63 0.02 0  0.66 0.02 0  0.6899999999999999 0.02 0  0.72 0.02 0  0.75 0.02 0  0.78 0.02 0  0.8100000000000001 0.02 0  0.84 0.02 0  0.87 0.02 0  0.9 0.02 0  0.93 0.02 0  0.96 0.02 0  0.99 0.02 0  1.02 0.02 0  1.05 0.02 0  1.08 0.02 0  1.11 0.02 0  1.14 0.02 0  1.17 0.02 0  1.2 0.02 0  1.23 0.02 0  1.26 0.02 0  1.29 0.02 0  1.32 0.02 0  1.35 0.02 0  1.38 0.02 0  1.41 0.02 0  1.44 0.02 0  1.47 0.02 0  1.5 0.02 0  0 0.04 0  0.03 0.04 0  0.06 0.04 0  0.09 0.04 0  0.12 0.04 0  0.15 0.04 0  0.18 0.04 0  0.21 0.04 0  0.24 0.04 0  0.27 0.04 0  0.3 0.04 0  0.33 0.04 0  0.36 0.04 0  0.39 0.04 0  0.42 0.04 0  0.45 0.04 0  0.48 0.04 0  0.51 0.04 0  0.54 0.04 0  0.57 0.04 0  0.6 0.04 0  0.63 0.04 0  0.66 0.04 0  0.6899999999999999 0.04 0  0.72 0.04 0  0.75 0.04 0  0.78 0.04 0  0.8100000000000001 0.04 0  0.84 0.04 0  0.87 0.04 0  0.9 0.04 0  0.93 0.04 0  0.96 0.04 0  0.99 0.04 0  1.02 0.04 0  1.05 0.04 0  1.08 0.04 0  1.11 0.04 0  1.14 0.04 0  1.17 0.04 0  1.2 0.04 0  1.23 0.04 0  1.26 0.04 0  1.29 0.04 0  1.32 0.04 0  1.35 0.04 0  1.38 0.04 0  1.41 0.04 0  1.44 0.04 0  1.47 0.04 0  1.5 0.04 0  0 0.06 0  0.03 0.06 0  0.06 0.06 0  0.09 0.06 0  0.12 0.06 0  0.15 0.06 0  0.18 0.06 0  0.21 0.06 0  0.24 0.06 0  0.27 0.06 0  0.3 0.06 0  0.33 0.06 0  0.36 0.06 0  0.39 0.06 0  0.42 0.06 0  0.45 0.06 0  0.48 0.06 0  0.51 0.06 0  0.54 0.06 0  0.57 0.06 0  0.6 0.06 0  0.63 0.06 0  0.66 0.06 0  0.6899999999999999 0.06 0  0.72 0.06 0  0.75 0.06 0  0.78 0.06 0  0.8100000000000001 0.06 0  0.84 0.06 0  0.87 0.06 0  0.9 0.06 0  0.93 0.06 0  0.96 0.06 0  0.99 0.06 0  1.02 0.06 0  1.05 0.06 0  1.08 0.06 0  1.11 0.06 0  1.14 0.06 0  1.17 0.06 0  1.2 0.06 0  1.23 0.06 0  1.26 0.06 0  1.29 0.06 0  1.32 0.06 0  1.35 0.06 0  1.38 0.06 0  1.41 0.06 0  1.44 0.06 0  1.47 0.06 0  1.5 0.06 0  0 0.08 0  0.03 0.08 0  0.06 0.08 0  0.09 0.08 0  0.12 0.08 0  0.15 0.08 0  0.18 0.08 0  0.21 0.08 0  0.24 0.08 0  0.27 0.08 0  0.3 0.08 0  0.33 0.08 0  0.36 0.08 0  0.39 0.08 0  0.42 0.08 0  0.45 0.08 0  0.48 0.08 0  0.51 0.08 0  0.54 0.08 0  0.57 0.08 0  0.6 0.08 0  0.63 0.08 0  0.66 0.08 0  0.6899999999999999 0.08 0  0.72 0.08 0  0.75 0.08 0  0.78 0.08 0  0.8100000000000001 0.08 0  0.84 0.08 0  0.87 0.08 0  0.9 0.08 0  0.93 0.08 0  0.96 0.08 0  0.99 0.08 0  1.02 0.08 0  1.05 0.08 0  1.08 0.08 0  1.11 0.08 0  1.14 0.08 0  1.17 0.08 0  1.2 0.08 0  1.23 0.08 0  1.26 0.08 0  1.29 0.08 0  1.32 0.08 0  1.35 0.08 0  1.38 0.08 0  1.41 0.08 0  1.44 0.08 0  1.47 0.08 0  1.5 0.08 0  0 0.1 0  0.03 0.1 0  0.06 0.1 0  0.09 0.1 0  0.12 0.1 0  0.15 0.1 0  0.18 0.1 0  0.21 0.1 0  0.24 0.1 0  0.27 0.1 0  0.3 0.1 0  0.33 0.1 0  0.36 0.1 0  0.39 0.1 0  0.42 0.1 0  0.45 0.1 0  0.48 0.1 0  0.51 0.1 0  0.54 0.1 0  0.57 0.1 0  0.6 0.1 0  0.63 0.1 0  0.66 0.1 0  0.6899999999999999 0.1 0  0.72 0.1 0  0.75 0.1 0  0.78 0.1 0  0.8100000000000001 0.1 0  0.84 0.1 0  0.87 0.1 0  0.9 0.1 0  0.93 0.1 0  0.96 0.1 0  0.99 0.1 0  1.02 0.1 0  1.05 0.1 0  1.08 0.1 0  1.11 0.1 0  1.14 0.1 0  1.17 0.1 0  1.2 0.1 0  1.23 0.1 0  1.26 0.1 0  1.29 0.1 0  1.32 0.1 0  1.35 0.1 0  1.38 0.1 0  1.41 0.1 0  1.44 0.1 0  1.47 0.1 0  1.5 0.1 0  0 0.12 0  0.03 0.12 0  0.06 0.12 0  0.09 0.12 0  0.12 0.12 0  0.15 0.12 0  0.18 0.12 0  0.21 0.12 0  0.24 0.12 0  0.27 0.12 0  0.3 0.12 0  0.33 0.12 0  0.36 0.12 0  0.39 0.12 0  0.42 0.12 0  0.45 0.12 0  0.48 0.12 0  0.51 0.12 0  0.54 0.12 0  0.57 0.12 0  0.6 0.12 0  0.63 0.12 0  0.66 0.12 0  0.6899999999999999 0.12 0  0.72 0.12 0  0.75 0.12 0  0.78 0.12 0  0.8100000000000001 0.12 0  0.84 0.12 0  0.87 0.12 0  0.9 0.12 0  0.93 0.12 0  0.96 0.12 0  0.99 0.12 0  1.02 0.12 0  1.05 0.12 0  1.08 0.12 0  1.11 0.12 0  1.14 0.12 0  1.17 0.12 0  1.2 0.12 0  1.23 0.12 0  1.26 0.12 0  1.29 0.12 0  1.32 0.12 0  1.35 0.12 0  1.38 0.12 0  1.41 0.12 0  1.44 0.12 0  1.47 0.12 0  1.5 0.12 0  0 0.14 0  0.03 0.14 0  0.06 0.14 0  0.09 0.14 0  0.12 0.14 0  0.15 0.14 0  0.18 0.14 0  0.21 0.14 0  0.24 0.14 0  0.27 0.14 0  0.3 0.14 0  0.33 0.14 0  0.36 0.14 0  0.39 0.14 0  0.42 0.14 0  0.45 0.14 0  0.48 0.14 0  0.51 0.14 0  0.54 0.14 0  0.57 0.14 0  0.6 0.14 0  0.63 0.14 0  0.66 0.14 0  0.6899999999999999 0.14 0  0.72 0.14 0  0.75 0.14 0  0.78 0.14 0  0.8100000000000001 0.14 0  0.84 0.14 0  0.87 0.14 0  0.9 0.14 0  0.93 0.14 0  0.96 0.14 0  0.99 0.14 0  1.02 0.14 0  1.05 0.14 0  1.08 0.14 0  1.11 0.14 0  1.14 0.14 0  1.17 0.14 0  1.2 0.14 0  1.23 0.14 0  1.26 0.14 0  1.29 0.14 0  1.32 0.14 0  1.35 0.14 0  1.38 0.14 0  1.41 0.14 0  1.44 0.14 0  1.47 0.14 0  1.5 0.14 0  0 0.16 0  0.03 0.16 0  0.06 0.16 0  0.09 0.16 0  0.12 0.16 0  0.15 0.16 0  0.18 0.16 0  0.21 0.16 0  0.24 0.16 0  0.27 0.16 0  0.3 0.16 0  0.33 0.16 0  0.36 0.16 0  0.39 0.16 0  0.42 0.16 0  0.45 0.16 0  0.48 0.16 0  0.51 0.16 0  0.54 0.16 0  0.57 0.16 0  0.6 0.16 0  0.63 0.16 0  0.66 0.16 0  0.6899999999999999 0.16 0  0.72 0.16 0  0.75 0.16 0  0.78 0.16 0  0.8100000000000001 0.16 0  0.84 0.16 0  0.87 0.16 0  0.9 0.16 0  0.93 0.16 0  0.96 0.16 0  0.99 0.16 0  1.02 0.16 0  1.05 0.16 0  1.08 0.16 0  1.11 0.16 0  1.14 0.16 0  1.17 0.16 0  1.2 0.16 0  1.23 0.16 0  1.26 0.16 0  1.29 0.16 0  1.32 0.16 0  1.35 0.16 0  1.38 0.16 0  1.41 0.16 0  1.44 0.16 0  1.47 0.16 0  1.5 0.16 0  0 0.18 0  0.03 0.18 0  0.06 0.18 0  0.09 0.18 0  0.12 0.18 0  0.15 0.18 0  0.18 0.18 0  0.21 0.18 0  0.24 0.18 0  0.27 0.18 0  0.3 0.18 0  0.33 0.18 0  0.36 0.18 0  0.39 0.18 0  0.42 0.18 0  0.45 0.18 0  0.48 0.18 0  0.51 0.18 0  0.54 0.18 0  0.57 0.18 0  0.6 0.18 0  0.63 0.18 0  0.66 0.18 0  0.6899999999999999 0.18 0  0.72 0.18 0  0.75 0.18 0  0.78 0.18 0  0.8100000000000001 0.18 0  0.84 0.18 0  0.87 0.18 0  0.9 0.18 0  0.93 0.18 0  0.96 0.18 0  0.99 0.18 0  1.02 0.18 0  1.05 0.18 0  1.08 0.18 0  1.11 0.18 0  1.14 0.18 0  1.17 0.18 0  1.2 0.18 0  1.23 0.18 0  1.26 0.18 0  1.29 0.18 0  1.32 0.18 0  1.35 0.18 0  1.38 0.18 0  1.41 0.18 0  1.44 0.18 0  1.47 0.18 0  1.5 0.18 0  0 0.2 0  0.03 0.2 0  0.06 0.2 0  0.09 0.2 0  0.12 0.2 0  0.15 0.2 0  0.18 0.2 0  0.21 0.2 0  0.24 0.2 0  0.27 0.2 0  0.3 0.2 0  0.33 0.2 0  0.36 0.2 0  0.39 0.2 0  0.42 0.2 0  0.45 0.2 0  0.48 0.2 0  0.51 0.2 0  0.54 0.2 0  0.57 0.2 0  0.6 0.2 0  0.63 0.2 0  0.66 0.2 0  0.6899999999999999 0.2 0  0.72 0.2 0  0.75 0.2 0  0.78 0.2 0  0.8100000000000001 0.2 0  0.84 0.2 0  0.87 0.2 0  0.9 0.2 0  0.93 0.2 0  0.96 0.2 0  0.99 0.2 0  1.02 0.2 0  1.05 0.2 0  1.08 0.2 0  1.11 0.2 0  1.14 0.2 0  1.17 0.2 0  1.2 0.2 0  1.23 0.2 0  1.26 0.2 0  1.29 0.2 0  1.32 0.2 0  1.35 0.2 0  1.38 0.2 0  1.41 0.2 0  1.44 0.2 0  1.47 0.2 0  1.5 0.2 0  0 0.22 0  0.03 0.22 0  0.06 0.22 0  0.09 0.22 0  0.12 0.22 0  0.15 0.22 0  0.18 0.22 0  0.21 0.22 0  0.24 0.22 0  0.27 0.22 0  0.3 0.22 0  0.33 0.22 0  0.36 0.22 0  0.39 0.22 0  0.42 0.22 0  0.45 0.22 0  0.48 0.22 0  0.51 0.22 0  0.54 0.22 0  0.57 0.22 0  0.6 0.22 0  0.63 0.22 0  0.66 0.22 0  0.6899999999999999 0.22 0  0.72 0.22 0  0.75 0.22 0  0.78 0.22 0  0.8100000000000001 0.22 0  0.84 0.22 0  0.87 0.22 0  0.9 0.22 0  0.93 0.22 0  0.96 0.22 0  0.99 0.22 0  1.02 0.22 0  1.05 0.22 0  1.08 0.22 0  1.11 0.22 0  1.14 0.22 0  1.17 0.22 0  1.2 0.22 0  1.23 0.22 0  1.26 0.22 0  1.29 0.22 0  1.32 0.22 0  1.35 0.22 0  1.38 0.22 0  1.41 0.22 0  1.44 0.22 0  1.47 0.22 0  1.5 0.22 0  0 0.24 0  0.03 0.24 0  0.06 0.24 0  0.09 0.24 0  0.12 0.24 0  0.15 0.24 0  0.18 0.24 0  0.21 0.24 0  0.24 0.24 0  0.27 0.24 0  0.3 0.24 0  0.33 0.24 0  0.36 0.24 0  0.39 0.24 0  0.42 0.24 0  0.45 0.24 0  0.48 0.24 0  0.51 0.24 0  0.54 0.24 0  0.57 0.24 0  0.6 0.24 0  0.63 0.24 0  0.66 0.24 0  0.6899999999999999 0.24 0  0.72 0.24 0  0.75 0.24 0  0.78 0.24 0  0.8100000000000001 0.24 0  0.84 0.24 0  0.87 0.24 0  0.9 0.24 0  0.93 0.24 0  0.96 0.24 0  0.99 0.24 0  1.02 0.24 0  1.05 0.24 0  1.08 0.24 0  1.11 0.24 0  1.14 0.24 0  1.17 0.24 0  1.2 0.24 0  1.23 0.24 0  1.26 0.24 0  1.29 0.24 0  1.32 0.24 0  1.35 0.24 0  1.38 0.24 0  1.41 0.24 0  1.44 0.24 0  1.47 0.24 0  1.5 0.24 0  0 0.26 0  0.03 0.26 0  0.06 0.26 0  0.09 0.26 0  0.12 0.26 0  0.15 0.26 0  0.18 0.26 0  0.21 0.26 0  0.24 0.26 0  0.27 0.26 0  0.3 0.26 0  0.33 0.26 0  0.36 0.26 0  0.39 0.26 0  0.42 0.26 0  0.45 0.26 0  0.48 0.26 0  0.51 0.26 0  0.54 0.26 0  0.57 0.26 0  0.6 0.26 0  0.63 0.26 0  0.66 0.26 0  0.6899999999999999 0.26 0  0.72 0.26 0  0.75 0.26 0  0.78 0.26 0  0.8100000000000001 0.26 0  0.84 0.26 0  0.87 0.26 0  0.9 0.26 0  0.93 0.26 0  0.96 0.26 0  0.99 0.26 0  1.02 0.26 0  1.05 0.26 0  1.08 0.26 0  1.11 0.26 0  1.14 0.26 0  1.17 0.26 0  1.2 0.26 0  1.23 0.26 0  1.26 0.26 0  1.29 0.26 0  1.32 0.26 0  1.35 0.26 0  1.38 0.26 0  1.41 0.26 0  1.44 0.26 0  1.47 0.26 0  1.5 0.26 0  0 0.28 0  0.03 0.28 0  0.06 0.28 0  0.09 0.28 0  0.12 0.28 0  0.15 0.28 0  0.18 0.28 0  0.21 0.28 0  0.24 0.28 0  0.27 0.28 0  0.3 0.28 0  0.33 0.28 0  0.36 0.28 0  0.39 0.28 0  0.42 0.28 0  0.45 0.28 0  0.48 0.28 0  0.51 0.28 0  0.54 0.28 0  0.57 0.28 0  0.6 0.28 0  0.63 0.28 0  0.66 0.28 0  0.6899999999999999 0.28 0  0.72 0.28 0  0.75 0.28 0  0.78 0.28 0  0.8100000000000001 0.28 0  0.84 0.28 0  0.87 0.28 0  0.9 0.28 0  0.93 0.28 0  0.96 0.28 0  0.99 0.28 0  1.02 0.28
[...]
<PointData  Scalars="ControlVisualisation"> 
<DataArray  type="Float64"  Name="ControlVisualisation"  format="ascii">1.9137728118886493e-05  1.2768644851977685e-05  1.2816333941411493e-05  1.2914346574503448e-05  1.3065307134097354e-05  1.3253128751531084e-05  1.3451864658421504e-05  1.3636889579077030e-05  1.3791523304688371e-05  1.3908312909986555e-05  1.3986761098871074e-05  1.4030468884757939e-05  1.4045166783361817e-05  1.4037448328675851e-05  1.4013839217889159e-05  1.3980170090961186e-05  1.3941276702309756e-05  1.3900945409452172e-05  1.3861988332653502e-05  1.3826375820515272e-05  1.3795396990019843e-05  1.3769831804867455e-05  1.3750114549696777e-05  1.3736468352438606e-05  1.3728999541987524e-05  1.3727753156312533e-05  1.3732738673436844e-05  1.3743934430494985e-05  1.3761272143651712e-05  1.3784594773560590e-05  1.3813577565260507e-05  1.3847607063169722e-05  1.3885624676024924e-05  1.3925952155407553e-05  1.3966120151295258e-05  1.4002720184718816e-05  1.4031312815986559e-05  1.4046452112597268e-05  1.4041906816513876e-05  1.4011134860444815e-05  1.3947947281472851e-05  1.3847527575144029e-05  1.3708279955284406e-05  1.3534542997993619e-05  1.3339287763596867e-05  1.3143900555186298e-05  1.2974159680027067e-05  1.2852239711846350e-05  1.2784635929162773e-05  1.2758084834417503e-05  3.8280353624701962e-05  1.2761249011666847e-05  6.3871965491651144e-06  6.4333517106993456e-06  6.5359710919941753e-06  6.7048566653155594e-06  6.9294051010592210e-06  7.1834698855755011e-06  7.4357066668161925e-06  7.6592074806332506e-06  7.8370976320996837e-06  7.9627673835249404e-06  8.0373391988338728e-06  8.0670484671840177e-06  8.0610017428776584e-06  8.0291682725233438e-06  7.9808535087855286e-06  7.9238706555517679e-06  7.8642981017853503e-06  7.8065691619062086e-06  7.7537068184126727e-06  7.7076141951826835e-06  7.6693773609263616e-06  7.6395451555325405e-06  7.6183554652953683e-06  7.6058926206030360e-06  7.6021800665184495e-06  7.6072247893396160e-06  7.6210296643896212e-06  7.6435791551732985e-06  7.6747896607862973e-06  7.7144067559869173e-06  7.7618341906587160e-06  7.8158941954852442e-06  7.8745378898450588e-06  7.9345365093873119e-06  7.9911877231464201e-06  8.0381005919975358e-06  8.0671810549204569e-06  8.0690364346074996e-06  8.0339082457205917e-06  7.9530610991639802e-06  7.8205500856234139e-06  7.6358846011948688e-06  7.4069862499823430e-06  7.1526440013540299e-06  6.9007364013226646e-06  6.6814694116448940e-06  6.5198070816917019e-06  6.4251236591897007e-06  6.3845025158464480e-06  1.2756566666494899e-05  1.2775596044797014e-05  6.4017494123502237e-06  6.4615926151966295e-06  6.5922275468139495e-06  6.8028261215847396e-06  7.0786910139373910e-06  7.3893090186307922e-06  7.6973606420590877e-06  7.9700937426232999e-06  8.1869966698499385e-06  8.3395845939542733e-06  8.4283759838380437e-06  8.4605624623339990e-06  8.4476036973578905e-06  8.4024042149484275e-06  8.3370212928052841e-06  8.2614877339908980e-06  8.1835214833913095e-06  8.1086739739714378e-06  8.0406476863966936e-06  7.9816843883688056e-06  7.9329781025049524e-06  7.8950606935590312e-06  7.8681091527297742e-06  7.8521500627550709e-06  7.8471709463266890e-06  7.8531685267520094e-06  7.8701622599535211e-06  7.8981828935903901e-06  7.9372215999414679e-06  7.9871087589746655e-06  8.0472941971004946e-06  8.1165247327697900e-06  8.1924516688977773e-06  8.2712123828999995e-06  8.3470250955455519e-06  8.4118701940728795e-06  8.4554104916502905e-06  8.4655490143382633e-06  8.4296913585354385e-06  8.3370056388167179e-06  8.1801878346950411e-06  7.9585813960640393e-06  7.6810967756708407e-06  7.3703026128411487e-06  7.0609493692111122e-06  6.7876565357919256e-06  6.5795746630988536e-06  6.4534339932842455e-06  6.3984283993546474e-06  1.2766914204717648e-05  1.2789598217364741e-05  6.4226978228299020e-06  6.5063330108028508e-06  6.6699627014266579e-06  6.9099242504260806e-06  7.2050992684291731e-06  7.5258752082295460e-06  7.8334116800999637e-06  8.0965408491792311e-06  8.3000415365760265e-06  8.4387235217292211e-06  8.5136689525078805e-06  8.5322071523929724e-06  8.5064137411198130e-06  8.4498188453236746e-06  8.3747319989181090e-06  8.2911574832747109e-06  8.2066997784172708e-06  8.1267831597283402e-06  8.0549501679945566e-06  7.9932330623745951e-06  7.9425914367016777e-06  7.9033457047330291e-06  7.8755203263028673e-06  7.8590545122426987e-06  7.8538970558675891e-06  7.8600345228440910e-06  7.8774978315378929e-06  7.9063625284645796e-06  7.9467200771533371e-06  7.9985705718568823e-06  8.0615906381390745e-06  8.1347703710473210e-06  8.2159791919267728e-06  8.3015284496886668e-06  8.3857852042640561e-06  8.4608135741554651e-06  8.5161547267631176e-06  8.5392909436545214e-06  8.5171646666073115e-06  8.4395923593243759e-06  8.2983533324936980e-06  8.0904754950428222e-06  7.8213334087241522e-06  7.5083374034422122e-06  7.1884692037341693e-06  6.8948302782383131e-06  6.6532848300853806e-06  6.4912532213606705e-06  6.4150785946980185e-06  1.2781483373401207e-05  1.2787081666163110e-05  6.4486356914781623e-06  6.5963215350950859e-06  6.8313532903675184e-06  7.1093400625721688e-06  7.4165135225655128e-06  7.7394310673564079e-06  8.0304586475219756e-06  8.2649303189930042e-06  8.4396822617082328e-06  8.5529523113223058e-06  8.6045057972721577e-06  8.6011302758696169e-06  8.5558757803853868e-06  8.4830613084881832e-06  8.3949544982964598e-06  8.3011267907841120e-06  8.2087791827378709e-06  8.1230290514745269e-06  8.0471121782222787e-06  7.9826922866212944e-06  7.9303328436240006e-06  7.8900124909999512e-06  7.8615254456940435e-06  7.8446931631553801e-06  7.8394208169177187e-06  7.8456845620017676e-06  7.8635238332760986e-06  7.8930637988143460e-06  7.9345314513132318e-06  7.9881819023167639e-06  8.0540534094958179e-06  8.1315363357582853e-06  8.2188600119730588e-06  8.3126669246376158e-06  8.4077047019667594e-06  8.4963408678615041e-06  8.5682701055462313e-06  8.6105847429310359e-06  8.6102744621752810e-06  8.5572473398554074e-06  8.4436454800918791e-06  8.2649052386008547e-06  8.0270205570415439e-06  7.7244791068279355e-06  7.4030747728704414e-06  7.1027387869783481e-06  6.8159264171646317e-06  6.5722573246065429e-06  6.4291480841439976e-06  1.2786933744810378e-05  1.2790429342620617e-05  6.5187096629914890e-06  6.9624805654328579e-06  7.5785159217964337e-06  7.8721560844585092e-06  7.9977549382137561e-06  8.1624424999534195e-06  8.3421178866890317e-06  8.5022337859748449e-06  8.6281010790743346e-06  8.7059269172583282e-06  8.7252212129945778e-06  8.6910358640496522e-06  8.6187826772584036e-06  8.5241271660451146e-06  8.4188514164038762e-06  8.3116037868235076e-06  8.2089678923547074e-06  8.1156937211533228e-06  8.0346384136851230e-06  7.9669446906296047e-06  7.9125861394335928e-06  7.8710408111559104e-06  7.8417906431838342e-06  7.8245236094992986e-06  7.8191135145004922e-06  7.8255320322041629e-06  7.8438147673556489e-06  7.8741231266079587e-06  7.9168436706420166e-06  7.9725832149579418e-06  8.0419116772524623e-06  8.1248115594540086e-06  8.2199945403394910e-06  8.3245538328387465e-06  8.4336722307265727e-06  8.5403260618009567e-06  8.6351758443950189e-06  8.7040475214061810e-06  8.7331597947021769e-06  8.7087445848998523e-06  8.6504965908023995e-06  8.5362422710553403e-06  8.4151991736907289e-06  8.2621190101747058e-06  8.1446719319828666e-06  7.9794790865043863e-06  7.3990743846428492e-06  6.7792188912531081e-06  6.4511384495842071e-06  1.2775979677273059e-05  1.3254891098118865e-05  7.0524035370456670e-06  9.6587526706497812e-06  1.6971555763750559e-05  2.2058089963856288e-05  1.5508170843156867e-05  1.1126182232560854e-05  9.3607711794488537e-06  8.9059445199495798e-06  8.8844909148351094e-06  8.9055945438174123e-06  8.8810616165998620e-06  8.8043215937607046e-06  8.6959787852484033e-06  8.5735921315787656e-06  8.4470251743171637e-06  8.3231444996994016e-06  8.2077254543722943e-06  8.1052041339445836e-06  8.0180446312955280e-06  7.9466730470204311e-06  7.8901930698541163e-06  7.8473667058897254e-06  7.8172796626144790e-06  7.7995035089570956e-06  7.7939266279943008e-06  7.8005341405992130e-06  7.8193280369655052e-06  7.8504553992484874e-06  7.8944571336858102e-06  7.9524017319891031e-06  8.0256275331809505e-06  8.1149962759791722e-06  8.2198122280710156e-06  8.3376255874410672e-06  8.4640503413989950e-06  8.5939942077642474e-06  8.7188586397697302e-06  8.8214543421826905e-06  8.8914233999197626e-06  8.9137512212333187e-06  8.9930397782689899e-06  9.1330197498042891e-06  9.8280258151109926e-06  1.1331549036642314e-05  1.4766679295238634e-05  2.1722915643757565e-05  1.7878863830799345e-05  1.0249559049003686e-05  6.9283832135181212e-06  1.2829572900291128e-05  1.4412400464349883e-05  1.5751890501654026e-05  2.9593920789855909e-02  5.7047623402296729e-02  5.2986420001761937e-02  3.3281499000227553e-02  1.0398932923913876e-02  3.0883881046673900e-05  1.1737475616434145e-05  9.5127403606004492e-06  9.1952246110792417e-06  9.0834911320286864e-06  8.9423000290606153e-06  8.7862585674261730e-06  8.6304921592638167e-06  8.4788212702172236e-06  8.3350766065176016e-06  8.2042367205384313e-06  8.0907096628922196e-06  7.9966684939517592e-06  7.9215317367241702e-06  7.8630894705706049e-06  7.8190798431828474e-06  7.7881181915657355e-06  7.7697425349939100e-06  7.7639605661538551e-06  7.7708092638479202e-06  7.7901988156446522e-06  7.8221427652553237e-06  7.8672736722042165e-06  7.9272445696994979e-06  8.0044949348777275e-06  8.1012382909746658e-06  8.2174965736158207e-06  8.3510432006854929e-06  8.4983883532336594e-06  8.6567174875331548e-06  8.8165659443975656e-06  8.9750531391448971e-06  9.1184804801333920e-06  9.2716566849297124e-06  1.0092099186366407e-05  1.2221113219702679e-05  2.4196884562794221e-05  7.5986408549063491e-03  2.9008005521292311e-02  4.9953556268537827e-02  5.7464622057067559e-02  4.1204417488403880e-02  1.6265549918666181e-05  1.4356057905677076e-05  3.1704360384553959e-05  8.9855833252125580e-02  2.0992617035641256e-01  2.1426041477693028e-01  1.8038280730583606e-01  1.3259815804199801e-01  8.2142772138252676e-02  3.7696169198991818e-02  5.7725397364897894e-03  1.6361683599904180e-05  1.0308368665628502e-05  9.4089915143871690e-06  9.1114066829408868e-06  8.8872795231129145e-06  8.6939334038158817e-06  8.5137200608667924e-06  8.3467450955542787e-06  8.1974794095491188e-06  8.0710094880782896e-06  7.9695778524076639e-06  7.8910804121468266e-06  7.8312423643211547e-06  7.7863273215607839e-06  7.7544477973162011e-06  7.7353189078659315e-06  7.7292668710898342e-06  7.7364516376223932e-06  7.7565931727115549e-06  7.7893297917506112e-06  7.8352163268303609e-06  7.8965941781837212e-06  7.9774935312384362e-06  8.0823727553021886e-06  8.2123804804089897e-06  8.3639888208279963e-06  8.5361254262029195e-06  8.7241454731954826e-06  8.9398461996880965e-06  9.2101933129315700e-06  9.6038655210732703e-06  1.0799296769915186e-05  1.6331972358551844e-05  2.5643908646387145e-03  3.0929811881574436e-02  7.5971854970699026e-02  1.2829926029336777e-01  1.7547501748335936e-01  2.0844334339402043e-01  2.0797087065486516e-01  1.1423336050566796e-01  2.3320806491986184e-05  4.0095876662897029e-01  4.6428262583661151e-01  4.9583730989030217e-01  4.2302973353323797e-01  3.5489667192658236e-01  2.7485626071430758e-01  1.9377070373250632e-01  1.1963855450558826e-01  5.9879457249431133e-02  1.6872299378297533e-02  2.9121428179882654e-05  1.1332264462924300e-05  9.4254791964546815e-06  9.0108880898399440e-06  8.7664732999432445e-06  8.5520615296710630e-06  8.3579436042240201e-06  8.1863655074717986e-06  8.0444589720865579e-06  7.9355527972459729e-06  7.8548868817701987e-06  7.7948068177917437e-06  7.7494488776650640e-06  7.7165021483840501e-06  7.6963119702310311e-06  7.6898669907683425e-06  7.6975678061736740e-06  7.7188034661919429e-06  7.7523783336828345e-06  7.7983920328548914e-06  7.8599168201704268e-06  7.9433969195177137e-06  8.0568103436524860e-06  8.2041863541015190e-06  8.3751300421621501e-06  8.5803611898444154e-06  8.8046730486368708e-06  9.1429212652233335e-06  9.8907820041798071e-06  1.1806846411819241e-05  2.3663518400631596e-05  1.1725269382423775e-02  5.3527881366347195e-02  1.1621414806415702e-01  1.8974985728489654e-01  2.7059249711315270e-01  3.5078520856690737e-01  4.1782075411803088e-01  4.4818298464904965e-01  4.6929288239029948e-01  3.5717119753772747e-01  9.9992162065558388e-01  9.9065756719979403e-01  7.8632122760511469e-01  6.6343086538051965e-01  5.5674436188532073e-01  4.4315015271161518e-01  3.3543905708240251e-01  2.3490464646611364e-01  1.4681842730441114e-01  7.6659758600439970e-02  2.7316072213365999e-02  1.9152341030571760e-04  1.2616280705901830e-05  9.4654137987480947e-06  8.8940724990190544e-06  8.6010328173803180e-06  8.3715091153030755e-06  8.1705546129506694e-06  8.0089385643832632e-06  7.8932483555044075e-06  7.8128057576255088e-06  7.7544275697790333e-06  7.7092148728691977e-06  7.6747249196488686e-06  7.6528649797666141e-06  7.6458286051655069e-06  7.6543515769246657e-06  7.6774051862119864e-06  7.7121314256074897e-06  7.7573830228337787e-06  7.8170283280201087e-06  7.9010433934787053e-06  8.0221407979367036e-06  8.1966823732647479e-06  8.3924790413382560e-06  8.6541368091598943e-06  8.9946027490536163e-06  1.0120645793840785e-05  1.3254631099535631e-05  5.0075874234253557e-05  2.1525856195042718e-02  7.1526710340486702e-02  1.4386122940808729e-01  2.3107479279919940e-01  3.3164272804744344e-01  4.4148853402971605e-01  5.4401477815151833e-01  6.5575813184618414e-01  8.0495834766426011e-01  9.9930965132678795e-01  9.9976747031587121e-01  9.9998426083656711e-01  9.9998624877408759e-01  9.9995099933757914e-01  9.0650957787792197e-01  7.4435287278586759e-01  6.1525112243292590e-01  4.8865862404963906e-01  3.6897281411963739e-01  2.5989733021712857e-01  1.6590690310863440e-01  9.1180080108134706e-02  3.8459072326095078e-02  5.4921821199081268e-03  1.6179555764691252e-05  9.9741784522101399e-06  8.8065880085642199e-06  8.4325758076574835e-06  8.1645687428400297e-06  7.9686203246446724e-06  7.8459169603796480e-06  7.7681526094804548e-06  7.7137080878544188e-06  7.6688365170341782e-06  7.6313776013506952e-06  7.6066847413334701e-06  7.5987505007330761e-06  7.6084879698923830e-06  7.6351025711204329e-06  7.6724607365094476e-06  7.7166443508750944e-06  7.7730632273784991e-06  7.8563376289204836e-06  7.9870348742714631e-06  8.2192919862233268e-06  8.4918826889043168e-06  9.0906337444798978e-06  1.0529099326959196e-05  1.6012449155682501e-05  2.2365748662001098e-03  3.2607475199215710e-02  8.7365147397890586e-02  1.6315866236386845e-01  2.5699112228248844e-01  3.6639735785643013e-01  4.8809496702097305e-01  6.0963306521325022e-01  7.4098450115085801e-01  9.3990283417928111e-01  9.9996766190731134e-01  9.9998775169585086e-01  9.9997841521107689e-01  9.9998959800742215e-01  9.9999307967565632e-01  9.9998613583895690e-01  9.9994662187250138e-01  9.1109869422652878e-01  7.6760082052491818e-01  6.3625240661604998e-01  5.0819360641047984e-01  3.8672837021088718e-01  2.7650159215024983e-01  1.8216162109068659e-01  1.0664352281794255e-01  5.1978043030081543e-02  1.6012845070522676e-02  4.0886518996414768e-05  1.2725778213504084e-05  9.5031339275107088e-06  8.4949629539348226e-06  8.0858401685421542e-06  7.8923923714942145e-06  7.7860434298285096e-06  7.7199284761179366e-06  7.6659220107778902e-06  7.6186673594203243e-06  7.5880291382064377e-06  7.5787077376010821e-06  7.5909226772034476e-06  7.6265576250424159e-06  7.6753528104663060e-06  7.7316114200271882e-06  7.8093394222129322e-06  7.9380789614906689e-06  8.1775743907479334e-06  8.8064857266515627e-06  9.9345751213453485e-06  1.2583638784174625e-05  3.1509423455842378e-05  1.1594328771374802e-02  4.7154420107877223e-02  1.0429653675763084e-01  1.7945803895254017e-01  2.7420074978162085e-01  3.8516121207122522e-01  5.0812281832678841e-01  6.3611612827110342e-01  7.6454686010737150e-01  9.3912961165926667e-01  9.9995841914545347e-01  9.9998654338939552e-01  9.9999306832909263e-01  9.9998877577516554e-01  9.9998898976450645e-01  9.9999360218825373e-01  9.9998940184808272e-01  9.9997584840242815e-01  9.9984306271889078e-01  8.8352829970506941e-01  7.6313882743086292e-01  6.3851326117284180e-01  5.1533115599296397e-01  3.9796250066655919e-01  2.9170512908797669e-01  2.0085791173998080e-01  1.2769479279209142e-01  7.3219735289301272e-02  3.5889044186049018e-02  1.1552067833781716e-02  6.1297207983765945e-05  1.6556171357387903e-05  1.1663595538836321e-05  1.0117855262530080e-05  9.3763308882536065e-06  8.9694793471451713e-06  8.7031922074313093e-06  8.5291642553370954e-06  8.4453441150109812e-06  8.4266933305282931e-06  8.4651653561777651e-06  8.5815827935831304e-06  8.7585449192032863e-06  9.0031779764956796e-06  9.4104658020213776e-06  1.0139582009418287e-05  1.1606595700337762e-05  1.5979921811988440e-05  4.8618948477599108e-05  8.6167674766051815e-03  3.1029966491594008e-02  7.0174289435878182e-02  1.2597155899069976e-01  1.9871220688921371e-01  2.8990399605362638e-01  3.9731080399283847e-01  5.1557426284216312e-01  6.4047256750142834e-01  7.6239694463261420e-01  8.9708961952783728e-01  9.9988877889762240e-01  9.9997569322513624e-01  9.9998902516526700e-01  9.9999344099035747e-01  9.9998965134231832e-01  9.9997991975493628e-01  9.9999041373052233e-01  9.9998605814910524e-01  9.9997492421366552e-01  9.9992564033653375e-01  9.6129125417419392e-01  8.5588526876145854e-01  7.4850094518721910e-01  6.3439617160648676e-01  5.1974797562934294e-01  4.1067474379158336e-01  3.1238240828578639e-01  2.2860195519825038e-01  1.6104849626495524e-01  1.0939683616683153e-01  7.2251250113543219e-02  4.6692783434560590e-02  2.8539904297205283e-02  1.6361374751762740e-02  9.2630737364742931e-03  4.7174343703857763e-03  1.8996203186605514e-03  3.7476578426918854e-04  1.1783218789383186e-04  8.0030087064614881e-05  7.2558533111292421e-05  7.8551933287375131e-05  1.1131037938820952e-04  3.1672514514799103e-04  1.6818809046029654e-03  4.3145510768521200e-03  8.5028546771338340e-03  1.5070790000709908e-02  2.5502088670693684e-02  4.3013561288727867e-02  7.0300762016041560e-02  1.0828433694676279e-01  1.5975688298054391e-01  2.2713557450223415e-01  3.1146253690527803e-01  4.1066584048109156e-01  5.2063946231785407e-01  6.3624013299919779e-01  7.5167191297430036e-01  8.5921353327316741e-01  9.7063773923794405e-01  9.9992265618795340e-01  9.9997231535843645e-01  9.9998485575227625e-01  9.9998979004088051e-01  9.9998487694961302e-01  9.9978556279136743e-01  9.9995687703877145e-01  9.9995444997584704e-01  9.9993730738624853e-01  9.9986293196397580e-01  9.8195120623785859e-01  9.0843332878322769e-01  8.2978977214895822e-01  7.3426456764734627e-01  6.3206027427987077e-01  5.2940681981317894e-01  4.3257744480210653e-01  3.4636323510094019e-01  2.7362285536875131e-01  2.1524198140553480e-01  1.7030139747841466e-01  1.3671538777956838e-01  1.1247718631966883e-01  9.5728942014266086e-02  8.4083258825807028e-02  7.5766574404301873e-02  7.0117481326814682e-02  6.6340021006961583e-02  6.3828057616951789e-02  6.2328955811449788e-02  6.1813914584234117e-02  6.2130837209431571e-02  6.3363771910716446e-02  6.5795500400328638e-02  6.9620371541026307e-02  7.5190960385953021e-02  8.3368380089606370e-02  9.5234281449351268e-02  1.1237970511549086e-01  1.3662505212961412e-01  1.6974338781516410e-01  2.1434072017094738e-01  2.7303976839864763e-01  3.4639359560180127e-01  4.3327886425740630e-01  5.3078550615157105e-01  6.3430800703115953e-01  7.3761536865841082e-01  8.3368579723727410e-01  9.1645000870305926e-01  9.8191812989737970e-01  9.9982878097294359e-01  9.9992872527098953e-01  9.9995439444355338e-01  9.9996273386323486e-01  9.9993977450627736e-01  3.3927902232426721e-01  6.4702490142066627e-01  8.0609131585658078e-01  9.0167915618161310e-01  9.4201566466196018e-01  9.4466384888509558e-01  9.2233617455052697e-01  8.7652599421029731e-01  8.0786254776192201e-01  7.2651382777852924e-01  6.3891200965822226e-01  5.5228215449749163e-01  4.722703216