<?xml version="1.0"?>
<VTKFile type="UnstructuredGrid"  version="0.1"  >
<UnstructuredGrid>
<Piece  NumberOfPoints="2601" NumberOfCells="5000">
<Points>
<DataArray  type="Float64"  NumberOfComponents="3"  format="ascii">0 0 0  0.03 0 0  0.06 0 0  0.09 0 0  0.12 0 0  0.15 0 0  0.18 0 0  0.21 0 0  0.24 0 0  0.27 0 0  0.3 0 0  0.33 0 0  0.36 0 0  0.39 0 0  0.42 0 0  0.45 0 0  0.48 0 0  0.51 0 0  0.54 0 0  0.57 0 0  0.6 0 0  0.63 0 0  0.66 0 0  0.6899999999999999 0 0  0.72 0 0  0.75 0 0  0.78 0 0  0.8100000000000001 0 0  0.84 0 0  0.87 0 0  0.9 0 0  0.93 0 0  0.96 0 0  0.99 0 0  1.02 0 0  1.05 0 0  1.08 0 0  1.11 0 0  1.14 0 0  1.17 0 0  1.2 0 0  1.23 0 0  1.26 0 0  1.29 0 0  1.32 0 0  1.35 0 0  1.38 0 0  1.41 0 0  1.44 0 0  1.47 0 0  1.5 0 0  0 0.02 0  0.03 0.02 0  0.06 0.02 0  0.09 0.02 0  0.12 0.02 0  0.15 0.02 0  0.18 0.02 0  0.21 0.02 0  0.24 0.02 0  0.27 0.02 0  0.3 0.02 0  0.33 0.02 0  0.36 0.02 0  0.39 0.02 0  0.42 0.02 0  0.45 0.02 0  0.48 0.02 0  0.51 0.02 0  0.54 0.02 0  0.57 0.02 0  0.6 0.02 0  0.63 0.02 0  0.66 0.02 0  0.6899999999999999 0.02 0  0.72 0.02 0  0.75 0.02 0  0.78 0.02 0  0.8100000000000001 0.02 0  0.84 0.02 0  0.87 0.02 0  0.9 0.02 0  0.93 0.02 0  0.96 0.02 0  0.99 0.02 0  1.02 0.02 0  1.05 0.02 0  1.08 0.02 0  1.11 0.02 0  1.14 0.02 0  1.17 0.02 0  1.2 0.02 0  1.23 0.02 0  1.26 0.02 0  1.29 0.02 0  1.32 0.02 0  1.35 0.02 0  1.38 0.02 0  1.41 0.02 0  1.44 0.02 0  1.47 0.02 0  1.5 0.02 0  0 0.04 0  0.03 0.04 0  0.06 0.04 0  0.09 0.04 0  0.12 0.04 0  0.15 0.04 0  0.18 0.04 0  0.21 0.04 0  0.24 0.04 0  0.27 0.04 0  0.3 0.04 0  0.33 0.04 0  0.36 0.04 0  0.39 0.04 0  0.42 0.04 0  0.45 0.04 0  0.48 0.04 0  0.51 0.04 0  0.54 0.04 0  0.57 0.04 0  0.6 0.04 0  0.63 0.04 0  0.66 0.04 0  0.6899999999999999 0.04 0  0.72 0.04 0  0.75 0.04 0  0.78 0.04 0  0.8100000000000001 0.04 0  0.84 0.04 0  0.87 0.04 0  0.9 0.04 0  0.93 0.04 0  0.96 0.04 0  0.99 0.04 0  1.02 0.04 0  1.05 0.04 0  1.08 0.04 0  1.11 0.04 0  1.14 0.04 0  1.17 0.04 0  1.2 0.04 0  1.23 0.04 0  1.26 0.04 0  1.29 0.04 0  1.32 0.04 0  1.35 0.04 0  1.38 0.04 0  1.41 0.04 0  1.44 0.04 0  1.47 0.04 0  1.5 0.04 0  0 0.06 0  0.03 0.06 0  0.06 0.06 0  0.09 0.06 0  0.12 0.06 0  0.15 0.06 0  0.18 0.06 0  0.21 0.06 0  0.24 0.06 0  0.27 0.06 0  0.3 0.06 0  0.33 0.06 0  0.36 0.06 0  0.39 0.06 0  0.42 0.06 0  0.45 0.06 0  0.48 0.06 0  0.51 0.06 0  0.54 0.06 0  0.57 0.06 0  0.6 0.06 0  0.63 0.06 0  0.66 0.06 0  0.6899999999999999 0.06 0  0.72 0.06 0  0.75 0.06 0  0.78 0.06 0  0.8100000000000001 0.06 0  0.84 0.06 0  0.87 0.06 0  0.9 0.06 0  0.93 0.06 0  0.96 0.06 0  0.99 0.06 0  1.02 0.06 0  1.05 0.06 0  1.08 0.06 0  1.11 0.06 0  1.14 0.06 0  1.17 0.06 0  1.2 0.06 0  1.23 0.06 0  1.26 0.06 0  1.29 0.06 0  1.32 0.06 0  1.35 0.06 0  1.38 0.06 0  1.41 0.06 0  1.44 0.06 0  1.47 0.06 0  1.5 0.06 0  0 0.08 0  0.03 0.08 0  0.06 0.08 0  0.09 0.08 0  0.12 0.08 0  0.15 0.08 0  0.18 0.08 0  0.21 0.08 0  0.24 0.08 0  0.27 0.08 0  0.3 0.08 0  0.33 0.08 0  0.36 0.08 0  0.39 0.08 0  0.42 0.08 0  0.45 0.08 0  0.48 0.08 0  0.51 0.08 0  0.54 0.08 0  0.57 0.08 0  0.6 0.08 0  0.63 0.08 0  0.66 0.08 0  0.6899999999999999 0.08 0  0.72 0.08 0  0.75 0.08 0  0.78 0.08 0  0.8100000000000001 0.08 0  0.84 0.08 0  0.87 0.08 0  0.9 0.08 0  0.93 0.08 0  0.96 0.08 0  0.99 0.08 0  1.02 0.08 0  1.05 0.08 0  1.08 0.08 0  1.11 0.08 0  1.14 0.08 0  1.17 0.08 0  1.2 0.08 0  1.23 0.08 0  1.26 0.08 0  1.29 0.08 0  1.32 0.08 0  1.35 0.08 0  1.38 0.08 0  1.41 0.08 0  1.44 0.08 0  1.47 0.08 0  1.5 0.08 0  0 0.1 0  0.03 0.1 0  0.06 0.1 0  0.09 0.1 0  0.12 0.1 0  0.15 0.1 0  0.18 0.1 0  0.21 0.1 0  0.24 0.1 0  0.27 0.1 0  0.3 0.1 0  0.33 0.1 0  0.36 0.1 0  0.39 0.1 0  0.42 0.1 0  0.45 0.1 0  0.48 0.1 0  0.51 0.1 0  0.54 0.1 0  0.57 0.1 0  0.6 0.1 0  0.63 0.1 0  0.66 0.1 0  0.6899999999999999 0.1 0  0.72 0.1 0  0.75 0.1 0  0.78 0.1 0  0.8100000000000001 0.1 0  0.84 0.1 0  0.87 0.1 0  0.9 0.1 0  0.93 0.1 0  0.96 0.1 0  0.99 0.1 0  1.02 0.1 0  1.05 0.1 0  1.08 0.1 0  1.11 0.1 0  1.14 0.1 0  1.17 0.1 0  1.2 0.1 0  1.23 0.1 0  1.26 0.1 0  1.29 0.1 0  1.32 0.1 0  1.35 0.1 0  1.38 0.1 0  1.41 0.1 0  1.44 0.1 0  1.47 0.1 0  1.5 0.1 0  0 0.12 0  0.03 0.12 0  0.06 0.12 0  0.09 0.12 0  0.12 0.12 0  0.15 0.12 0  0.18 0.12 0  0.21 0.12 0  0.24 0.12 0  0.27 0.12 0  0.3 0.12 0  0.33 0.12 0  0.36 0.12 0  0.39 0.12 0  0.42 0.12 0  0.45 0.12 0  0.48 0.12 0  0.51 0.12 0  0.54 0.12 0  0.57 0.12 0  0.6 0.12 0  0.63 0.12 0  0.66 0.12 0  0.6899999999999999 0.12 0  0.72 0.12 0  0.75 0.12 0  0.78 0.12 0  0.8100000000000001 0.12 0  0.84 0.12 0  0.87 0.12 0  0.9 0.12 0  0.93 0.12 0  0.96 0.12 0  0.99 0.12 0  1.02 0.12 0  1.05 0.12 0  1.08 0.12 0  1.11 0.12 0  1.14 0.12 0  1.17 0.12 0  1.2 0.12 0  1.23 0.12 0  1.26 0.12 0  1.29 0.12 0  1.32 0.12 0  1.35 0.12 0  1.38 0.12 0  1.41 0.12 0  1.44 0.12 0  1.47 0.12 0  1.5 0.12 0  0 0.14 0  0.03 0.14 0  0.06 0.14 0  0.09 0.14 0  0.12 0.14 0  0.15 0.14 0  0.18 0.14 0  0.21 0.14 0  0.24 0.14 0  0.27 0.14 0  0.3 0.14 0  0.33 0.14 0  0.36 0.14 0  0.39 0.14 0  0.42 0.14 0  0.45 0.14 0  0.48 0.14 0  0.51 0.14 0  0.54 0.14 0  0.57 0.14 0  0.6 0.14 0  0.63 0.14 0  0.66 0.14 0  0.6899999999999999 0.14 0  0.72 0.14 0  0.75 0.14 0  0.78 0.14 0  0.8100000000000001 0.14 0  0.84 0.14 0  0.87 0.14 0  0.9 0.14 0  0.93 0.14 0  0.96 0.14 0  0.99 0.14 0  1.02 0.14 0  1.05 0.14 0  1.08 0.14 0  1.11 0.14 0  1.14 0.14 0  1.17 0.14 0  1.2 0.14 0  1.23 0.14 0  1.26 0.14 0  1.29 0.14 0  1.32 0.14 0  1.35 0.14 0  1.38 0.14 0  1.41 0.14 0  1.44 0.14 0  1.47 0.14 0  1.5 0.14 0  0 0.16 0  0.03 0.16 0  0.06 0.16 0  0.09 0.16 0  0.12 0.16 0  0.15 0.16 0  0.18 0.16 0  0.21 0.16 0  0.24 0.16 0  0.27 0.16 0  0.3 0.16 0  0.33 0.16 0  0.36 0.16 0  0.39 0.16 0  0.42 0.16 0  0.45 0.16 0  0.48 0.16 0  0.51 0.16 0  0.54 0.16 0  0.57 0.16 0  0.6 0.16 0  0.63 0.16 0  0.66 0.16 0  0.6899999999999999 0.16 0  0.72 0.16 0  0.75 0.16 0  0.78 0.16 0  0.8100000000000001 0.16 0  0.84 0.16 0  0.87 0.16 0  0.9 0.16 0  0.93 0.16 0  0.96 0.16 0  0.99 0.16 0  1.02 0.16 0  1.05 0.16 0  1.08 0.16 0  1.11 0.16 0  1.14 0.16 0  1.17 0.16 0  1.2 0.16 0  1.23 0.16 0  1.26 0.16 0  1.29 0.16 0  1.32 0.16 0  1.35 0.16 0  1.38 0.16 0  1.41 0.16 0  1.44 0.16 0  1.47 0.16 0  1.5 0.16 0  0 0.18 0  0.03 0.18 0  0.06 0.18 0  0.09 0.18 0  0.12 0.18 0  0.15 0.18 0  0.18 0.18 0  0.21 0.18 0  0.24 0.18 0  0.27 0.18 0  0.3 0.18 0  0.33 0.18 0  0.36 0.18 0  0.39 0.18 0  0.42 0.18 0  0.45 0.18 0  0.48 0.18 0  0.51 0.18 0  0.54 0.18 0  0.57 0.18 0  0.6 0.18 0  0.63 0.18 0  0.66 0.18 0  0.6899999999999999 0.18 0  0.72 0.18 0  0.75 0.18 0  0.78 0.18 0  0.8100000000000001 0.18 0  0.84 0.18 0  0.87 0.18 0  0.9 0.18 0  0.93 0.18 0  0.96 0.18 0  0.99 0.18 0  1.02 0.18 0  1.05 0.18 0  1.08 0.18 0  1.11 0.18 0  1.14 0.18 0  1.17 0.18 0  1.2 0.18 0  1.23 0.18 0  1.26 0.18 0  1.29 0.18 0  1.32 0.18 0  1.35 0.18 0  1.38 0.18 0  1.41 0.18 0  1.44 0.18 0  1.47 0.18 0  1.5 0.18 0  0 0.2 0  0.03 0.2 0  0.06 0.2 0  0.09 0.2 0  0.12 0.2 0  0.15 0.2 0  0.18 0.2 0  0.21 0.2 0  0.24 0.2 0  0.27 0.2 0  0.3 0.2 0  0.33 0.2 0  0.36 0.2 0  0.39 0.2 0  0.42 0.2 0  0.45 0.2 0  0.48 0.2 0  0.51 0.2 0  0.54 0.2 0  0.57 0.2 0  0.6 0.2 0  0.63 0.2 0  0.66 0.2 0  0.6899999999999999 0.2 0  0.72 0.2 0  0.75 0.2 0  0.78 0.2 0  0.8100000000000001 0.2 0  0.84 0.2 0  0.87 0.2 0  0.9 0.2 0  0.93 0.2 0  0.96 0.2 0  0.99 0.2 0  1.02 0.2 0  1.05 0.2 0  1.08 0.2 0  1.11 0.2 0  1.14 0.2 0  1.17 0.2 0  1.2 0.2 0  1.23 0.2 0  1.26 0.2 0  1.29 0.2 0  1.32 0.2 0  1.35 0.2 0  1.38 0.2 0  1.41 0.2 0  1.44 0.2 0  1.47 0.2 0  1.5 0.2 0  0 0.22 0  0.03 0.22 0  0.06 0.22 0  0.09 0.22 0  0.12 0.22 0  0.15 0.22 0  0.18 0.22 0  0.21 0.22 0  0.24 0.22 0  0.27 0.22 0  0.3 0.22 0  0.33 0.22 0  0.36 0.22 0  0.39 0.22 0  0.42 0.22 0  0.45 0.22 0  0.48 0.22 0  0.51 0.22 0  0.54 0.22 0  0.57 0.22 0  0.6 0.22 0  0.63 0.22 0  0.66 0.22 0  0.6899999999999999 0.22 0  0.72 0.22 0  0.75 0.22 0  0.78 0.22 0  0.8100000000000001 0.22 0  0.84 0.22 0  0.87 0.22 0  0.9 0.22 0  0.93 0.22 0  0.96 0.22 0  0.99 0.22 0  1.02 0.22 0  1.05 0.22 0  1.08 0.22 0  1.11 0.22 0  1.14 0.22 0  1.17 0.22 0  1.2 0.22 0  1.23 0.22 0  1.26 0.22 0  1.29 0.22 0  1.32 0.22 0  1.35 0.22 0  1.38 0.22 0  1.41 0.22 0  1.44 0.22 0  1.47 0.22 0  1.5 0.22 0  0 0.24 0  0.03 0.24 0  0.06 0.24 0  0.09 0.24 0  0.12 0.24 0  0.15 0.24 0  0.18 0.24 0  0.21 0.24 0  0.24 0.24 0  0.27 0.24 0  0.3 0.24 0  0.33 0.24 0  0.36 0.24 0  0.39 0.24 0  0.42 0.24 0  0.45 0.24 0  0.48 0.24 0  0.51 0.24 0  0.54 0.24 0  0.57 0.24 0  0.6 0.24 0  0.63 0.24 0  0.66 0.24 0  0.6899999999999999 0.24 0  0.72 0.24 0  0.75 0.24 0  0.78 0.24 0  0.8100000000000001 0.24 0  0.84 0.24 0  0.87 0.24 0  0.9 0.24 0  0.93 0.24 0  0.96 0.24 0  0.99 0.24 0  1.02 0.24 0  1.05 0.24 0  1.08 0.24 0  1.11 0.24 0  1.14 0.24 0  1.17 0.24 0  1.2 0.24 0  1.23 0.24 0  1.26 0.24 0  1.29 0.24 0  1.32 0.24 0  1.35 0.24 0  1.38 0.24 0  1.41 0.24 0  1.44 0.24 0  1.47 0.24 0  1.5 0.24 0  0 0.26 0  0.03 0.26 0  0.06 0.26 0  0.09 0.26 0  0.12 0.26 0  0.15 0.26 0  0.18 0.26 0  0.21 0.26 0  0.24 0.26 0  0.27 0.26 0  0.3 0.26 0  0.33 0.26 0  0.36 0.26 0  0.39 0.26 0  0.42 0.26 0  0.45 0.26 0  0.48 0.26 0  0.51 0.26 0  0.54 0.26 0  0.57 0.26 0  0.6 0.26 0  0.63 0.26 0  0.66 0.26 0  0.6899999999999999 0.26 0  0.72 0.26 0  0.75 0.26 0  0.78 0.26 0  0.8100000000000001 0.26 0  0.84 0.26 0  0.87 0.26 0  0.9 0.26 0  0.93 0.26 0  0.96 0.26 0  0.99 0.26 0  1.02 0.26 0  1.05 0.26 0  1.08 0.26 0  1.11 0.26 0  1.14 0.26 0  1.17 0.26 0  1.2 0.26 0  1.23 0.26 0  1.26 0.26 0  1.29 0.26 0  1.32 0.26 0  1.35 0.26 0  1.38 0.26 0  1.41 0.26 0  1.44 0.26 0  1.47 0.26 0  1.5 0.26 0  0 0.28 0  0.03 0.28 0  0.06 0.28 0  0.09 0.28 0  0.12 0.28 0  0.15 0.28 0  0.18 0.28 0  0.21 0.28 0  0.24 0.28 0  0.27 0.28 0  0.3 0.28 0  0.33 0.28 0  0.36 0.28 0  0.39 0.28 0  0.42 0.28 0  0.45 0.28 0  0.48 0.28 0  0.51 0.28 0  0.54 0.28 0  0.57 0.28 0  0.6 0.28 0  0.63 0.28 0  0.66 0.28 0  0.6899999999999999 0.28 0  0.72 0.28 0  0.75 0.28 0  0.78 0.28 0  0.8100000000000001 0.28 0  0.84 0.28 0  0.87 0.28 0  0.9 0.28 0  0.93 0.28 0  0.96 0.28 0  0.99 0.28 0  1.02 0.28
[...]
<PointData  Scalars="ControlVisualisation"> 
<DataArray  type="Float64"  Name="ControlVisualisation"  format="ascii">1.9137605001545166e-05  1.2768561904514290e-05  1.2816247979800865e-05  1.2914254660477859e-05  1.3065206850738530e-05  1.3253019411981766e-05  1.3451747274838678e-05  1.3636766027146837e-05  1.3791395966969476e-05  1.3908184819357985e-05  1.3986635499104710e-05  1.4030348311377658e-05  1.4045052638635294e-05  1.4037341074548185e-05  1.4013738688207353e-05  1.3980075704249784e-05  1.3941187635493324e-05  1.3900860758944826e-05  1.3861907213667265e-05  1.3826297398618481e-05  1.3795320489532800e-05  1.3769756547613139e-05  1.3750040024265654e-05  1.3736394267073815e-05  1.3728925815591382e-05  1.3727679836766671e-05  1.3732665813718285e-05  1.3743861975118482e-05  1.3761199879471579e-05  1.3784522360183647e-05  1.3813504613661059e-05  1.3847533184851630e-05  1.3885549454383037e-05  1.3925875059730341e-05  1.3966040473595798e-05  1.4002637064070185e-05  1.4031225364046924e-05  1.4046359739657016e-05  1.4041809839719891e-05  1.4011035167370581e-05  1.3947847175813358e-05  1.3847426141070127e-05  1.3708172481182733e-05  1.3534428943930457e-05  1.3339174275711264e-05  1.3143794888090480e-05  1.2974063573336889e-05  1.2852151023591414e-05  1.2784551648940840e-05  1.2758002488261003e-05  3.8280108164314785e-05  1.2761166534738867e-05  6.3871545726127220e-06  6.4333067750365304e-06  6.5359197174409050e-06  6.7047953292765817e-06  6.9293317510601092e-06  7.1833845165079011e-06  7.4356107566961968e-06  7.6591036661241865e-06  7.8369901544391825e-06  7.9626615857473413e-06  8.0372397727654931e-06  8.0669582910636982e-06  8.0609219795556278e-06  8.0290988840331000e-06  7.9807936541479334e-06  7.9238190251522984e-06  7.8642532317517922e-06  7.8065296398557745e-06  7.7536713481178179e-06  7.7075815966498033e-06  7.6693466034919899e-06  7.6395154482098994e-06  7.6183263418831167e-06  7.6058639437825573e-06  7.6021519245872762e-06  7.6071973191316720e-06  7.6210028727425284e-06  7.6435528186290674e-06  7.6747633481424474e-06  7.7143799378829511e-06  7.7618063334370715e-06  7.8158647355433611e-06  7.8745060984524287e-06  7.9345013619135727e-06  7.9911478923063524e-06  8.0380546023163207e-06  8.0671276616209909e-06  8.0689755651704048e-06  8.0338423986673687e-06  7.9529947332852639e-06  7.8204841444549490e-06  7.6358119700631097e-06  7.4069033023958707e-06  7.1525599562049124e-06  6.9006623487423719e-06  6.6814083531331369e-06  6.5197561384980517e-06  6.4250788041330556e-06  6.3844605184104956e-06  1.2756484429924176e-05  1.2775512685073852e-05  6.4017065080190544e-06  6.4615457512079436e-06  6.5921722283088458e-06  6.8027581327208958e-06  7.0786080530038724e-06  7.3892112678169504e-06  7.6972495288769915e-06  7.9699716766167731e-06  8.1868690404830602e-06  8.3394591955649369e-06  8.4282594257215001e-06  8.4604583498778210e-06  8.4475133350587093e-06  8.4023274759964867e-06  8.3369569929601540e-06  8.2614340358079721e-06  8.1834763886092937e-06  8.1086356333033443e-06  8.0406144420070035e-06  7.9816547105771026e-06  7.9329506134389261e-06  7.8950343210132672e-06  7.8680832923384448e-06  7.8521246040438734e-06  7.8471461205793047e-06  7.8531446345343746e-06  7.8701393909886037e-06  7.8981607656076334e-06  7.9371996065317788e-06  7.9870861812811632e-06  8.0472703889192753e-06  8.1164990828181025e-06  8.1924233449864847e-06  8.2711800847950487e-06  8.3469870370122644e-06  8.4118242937864290e-06  8.4553545416048786e-06  8.4654820597316145e-06  8.4296162421817309e-06  8.3369320057637261e-06  8.1801220789703572e-06  7.9585083761657686e-06  7.6810017066494547e-06  7.3702013655298538e-06  7.0608625655232327e-06  6.7875883260844647e-06  6.5795199363157355e-06  6.4533871117065706e-06  6.3983852150434848e-06  1.2766831076601522e-05  1.2789513999647658e-05  6.4226535589916382e-06  6.5062828759126836e-06  6.6699013755428091e-06  6.9098486044919457e-06  7.2050079297482163e-06  7.5257699921911952e-06  7.8332939107774511e-06  8.0964107591157029e-06  8.2999050762289167e-06  8.4385912981562746e-06  8.5135484081202526e-06  8.5321008529279417e-06  8.5063222532721317e-06  8.4497418839039241e-06  8.3746681806303982e-06  8.2911046398057677e-06  8.2066556790286708e-06  8.1267459074569821e-06  8.0549181254521667e-06  7.9932046291368159e-06  7.9425650407869133e-06  7.9033200732720624e-06  7.8754947912621055e-06  7.8590290863082238e-06  7.8538722206532495e-06  7.8600108390973649e-06  7.8774755288193830e-06  7.9063412622089672e-06  7.9466990225937029e-06  7.9985488226870344e-06  8.0615675667155797e-06  8.1347455747821059e-06  8.2159520278174507e-06  8.3014975871932106e-06  8.3857486782337851e-06  8.4607690559888530e-06  8.5160989915102399e-06  8.5392210205153602e-06  8.5170805793638838e-06  8.4395133389171251e-06  8.2983004136738794e-06  8.0904250865462552e-06  7.8212315667263283e-06  7.5082140804657104e-06  7.1883677644596797e-06  6.8947553207558263e-06  6.6532263107776491e-06  6.4912038801426042e-06  6.4150337930520702e-06  1.2781398750844532e-05  1.2786997924242701e-05  6.4485899060965075e-06  6.5962646295750703e-06  6.8312787659275300e-06  7.1092516383294653e-06  7.4164086532801127e-06  7.7393160288335582e-06  8.0303338980905012e-06  8.2647885886866445e-06  8.4395316847374121e-06  8.5528109995753559e-06  8.6043816349480249e-06  8.6010224372634589e-06  8.5557836404994998e-06  8.4829848062281442e-06  8.3948920139823012e-06  8.3010755509115257e-06  8.2087365997938098e-06  8.1229932674731122e-06  8.0470817239815616e-06  7.9826655200308821e-06  7.9303078682974283e-06  7.8899876713005888e-06  7.8614999979304487e-06  7.8446673140373985e-06  7.8393954760731650e-06  7.8456607388262372e-06  7.8635020089735151e-06  7.8930435129797375e-06  7.9345114577066961e-06  7.9881609273171929e-06  8.0540308786440117e-06  8.1315122991059713e-06  8.2188342327389935e-06  8.3126380179816536e-06  8.4076704134847884e-06  8.4962987877731346e-06  8.5682163465060516e-06  8.6105117704489377e-06  8.6101739186417060e-06  8.5571479052919564e-06  8.4436108558831140e-06  8.2649332185594503e-06  8.0269067545424966e-06  7.7243018085029052e-06  7.4029463964630382e-06  7.1026553001339937e-06  6.8158623704494534e-06  6.5722040682817904e-06  6.4291018436645262e-06  1.2786847892621331e-05  1.2790346017689881e-05  6.5186591242469020e-06  6.9624090822059401e-06  7.5784370799175744e-06  7.8721022507203845e-06  7.9976706238992029e-06  8.1623335885534861e-06  8.3419955347654273e-06  8.5020738088982269e-06  8.6279236461754743e-06  8.7057728254685885e-06  8.7250947306896049e-06  8.6909265189627850e-06  8.6186892455265394e-06  8.5240513074836252e-06  8.4187910396733056e-06  8.3115548589131088e-06  8.2089272362352994e-06  8.1156596968477635e-06  8.0346100159406705e-06  7.9669202949054656e-06  7.9125632607776258e-06  7.8710171301155901e-06  7.8417651583690887e-06  7.8244969045172839e-06  7.8190871922215986e-06  7.8255078367274437e-06  7.8437936269232944e-06  7.8741043864051555e-06  7.9168252794127016e-06  7.9725631655537035e-06  8.0418894991965533e-06  8.1247882216330107e-06  8.2199706151400805e-06  8.3245277787231860e-06  8.4336409149735610e-06  8.5402875816056065e-06  8.6351281734098955e-06  8.7039733775126738e-06  8.7330379857286314e-06  8.7085656917922715e-06  8.6504887301386618e-06  8.5364954388273700e-06  8.4151080495511567e-06  8.2618404541539066e-06  8.1445650227698067e-06  7.9794520318784483e-06  7.3990235515805371e-06  6.7791584618077757e-06  6.4510918384757786e-06  1.2775894666733574e-05  1.3254806660682109e-05  7.0524197646412443e-06  9.6588662967998503e-06  1.6971357715380267e-05  2.2059272152688548e-05  1.5509230572199053e-05  1.1126559464687737e-05  9.3608464574538408e-06  8.9057725902157971e-06  8.8842596133251206e-06  8.9054280716710349e-06  8.8809401788018969e-06  8.8042100764254317e-06  8.6958819537182654e-06  8.5735172109401859e-06  8.4469682182084111e-06  8.3230988162453117e-06  8.2076869869428521e-06  8.1051718733026905e-06  8.0180186811149437e-06  7.9466519759851523e-06  7.8901732946576095e-06  7.8473446133021055e-06  7.8172538787671453e-06  7.7994752337384254e-06  7.7938985494881736e-06  7.8005091546294718e-06  7.8193078851306264e-06  7.8504391558542726e-06  7.8944412312929484e-06  7.9523826780091974e-06  8.0256050658079415e-06  8.1149732014052281e-06  8.2197907883046291e-06  8.3376038258236873e-06  8.4640223544453540e-06  8.5939599334682267e-06  8.7188242262455301e-06  8.8213879059272372e-06  8.8913009347780465e-06  8.9133352626829898e-06  8.9930180451899474e-06  9.1337459937183743e-06  9.8275143986631686e-06  1.1330698193342486e-05  1.4768176537018851e-05  2.1726068447559291e-05  1.7880210464957699e-05  1.0249649129645636e-05  6.9283304814358748e-06  1.2829490014714774e-05  1.4412205806740123e-05  1.5752156744311704e-05  2.9591538482739356e-02  5.7054025117948555e-02  5.2985136495819915e-02  3.3267620129605546e-02  1.0394301005974911e-02  3.0894931560035606e-05  1.1738103450701671e-05  9.5124855144953082e-06  9.1950877581829575e-06  9.0833995115114831e-06  8.9421796733272046e-06  8.7861527330800372e-06  8.6304195017463579e-06  8.4787702522156632e-06  8.3350354634779411e-06  8.2042003907017008e-06  8.0906785447559451e-06  7.9966451526216444e-06  7.9215153994798263e-06  7.8630744149468209e-06  7.8190599749877117e-06  7.7880915885650324e-06  7.7697115277875148e-06  7.7639294916738603e-06  7.7707827116289701e-06  7.7901800659618834e-06  7.8221306635201350e-06  7.8672618113673765e-06  7.9272263981382658e-06  8.0044706172974312e-06  8.1012142494693223e-06  8.2174786545244561e-06  8.3510284505570536e-06  8.4983640483362668e-06  8.6566837572391097e-06  8.8165530792863964e-06  8.9750270056672757e-06  9.1184398232221250e-06  9.2707693314514373e-06  1.0092411631111666e-05  1.2223879501534250e-05  2.4196887449196449e-05  7.5557871429007828e-03  2.8995064725542207e-02  4.9954109625377878e-02  5.7457892808071065e-02  4.1181392879791945e-02  1.6265984684364531e-05  1.4355902714011313e-05  3.1705984653586594e-05  8.9858769489186710e-02  2.0991781185101238e-01  2.1425238167296959e-01  1.8037396989568336e-01  1.3258577101257871e-01  8.2139324045573864e-02  3.7673773372886632e-02  5.7773328863500294e-03  1.6362331795328358e-05  1.0308813647057212e-05  9.4090021748665686e-06  9.1112461989144485e-06  8.8871543412506528e-06  8.6938687954361054e-06  8.5136795807511915e-06  8.3467102397201021e-06  8.1974446491850963e-06  8.0709775901716137e-06  7.9695566850891521e-06  7.8910711169393362e-06  7.8312348223015691e-06  7.7863105739110200e-06  7.7544193584101740e-06  7.7352833551070338e-06  7.7292309445651125e-06  7.7364220792370603e-06  7.7565762607678026e-06  7.7893247600949957e-06  7.8352114452651534e-06  7.8965764621370536e-06  7.9774639019243549e-06  8.0823449856166321e-06  8.2123679418287099e-06  8.3639867573920856e-06  8.5361079857112078e-06  8.7240903841034285e-06  8.9398659663121894e-06  9.2102697729603234e-06  9.6041893463581488e-06  1.0797317273579511e-05  1.6330554994511040e-05  2.5856851196384852e-03  3.0917888461794458e-02  7.5972300135255869e-02  1.2829192027844441e-01  1.7546420270205360e-01  2.0843421509879972e-01  2.0796809404803390e-01  1.1422586269020425e-01  2.3321226930991115e-05  4.0098900193118375e-01  4.6425960002496802e-01  4.9584606375379758e-01  4.2304219352452843e-01  3.5490571801386672e-01  2.7486233560627532e-01  1.9376922113373299e-01  1.1963073996793508e-01  5.9886738213675961e-02  1.6853123746969106e-02  2.9135167518310473e-05  1.1333075209091987e-05  9.4252310280803659e-06  9.0107493911361632e-06  8.7664363362237939e-06  8.5520381475977131e-06  8.3579173320541608e-06  8.1863312024449551e-06  8.0444216517757876e-06  7.9355318438204396e-06  7.8548888363041591e-06  7.7948119249750035e-06  7.7494363593628174e-06  7.7164698313843608e-06  7.6962692319887629e-06  7.6898236188682329e-06  7.6975325484617697e-06  7.7187883454409731e-06  7.7523858748502117e-06  7.7983999192596452e-06  7.8598985790868920e-06  7.9433544030914566e-06  8.0567739493062227e-06  8.2041812267470911e-06  8.3751536065348119e-06  8.5803663237759423e-06  8.8045364208644358e-06  9.1429712696718287e-06  9.8910135041129592e-06  1.1807653028290765e-05  2.3661833366358349e-05  1.1704825356420564e-02  5.3555024714609871e-02  1.1620670799533855e-01  1.8975151093903650e-01  2.7060677069684047e-01  3.5079369711352204e-01  4.1783505866423065e-01  4.4819366697856639e-01  4.6930342995416402e-01  3.5718202606203137e-01  9.9992160372471528e-01  9.9068366862320201e-01  7.8634276537413117e-01  6.6342384827519729e-01  5.5674785431457663e-01  4.4316326413950702e-01  3.3545440903555651e-01  2.3491373256322759e-01  1.4681451092819564e-01  7.6673602328823767e-02  2.7331982963609371e-02  1.9204191183545127e-04  1.2616400592647411e-05  9.4655088250591606e-06  8.8941165347128826e-06  8.6010299170568074e-06  8.3714946734945544e-06  8.1705202846488783e-06  8.0088858961219568e-06  7.8932215469296264e-06  7.8128272842427286e-06  7.7544552024470512e-06  7.7092072405221490e-06  7.6746844630421471e-06  7.6528114571795796e-06  7.6457744342751366e-06  7.6543064413732769e-06  7.6773888968630409e-06  7.7121623937052454e-06  7.7574144527989358e-06  7.8170087303615670e-06  7.9009711637491972e-06  8.0220889066398750e-06  8.1966811273556510e-06  8.3925619986951027e-06  8.6542054046640829e-06  8.9942763889263202e-06  1.0121022880065559e-05  1.3256117274936757e-05  5.0100959118304578e-05  2.1525143452868791e-02  7.1518478418675785e-02  1.4385972195467231e-01  2.3109286445037666e-01  3.3165510218266692e-01  4.4148901718897815e-01  5.4401165592684453e-01  6.5576179957673997e-01  8.0494881903098570e-01  9.9930988304242041e-01  9.9976757688514661e-01  9.9998426073521218e-01  9.9998624869890396e-01  9.9995099607177329e-01  9.0650343732409644e-01  7.4436060106453827e-01  6.1525095125298168e-01  4.8866935945261647e-01  3.6899206553312353e-01  2.5991384854934629e-01  1.6590197144501204e-01  9.1182043080316771e-02  3.8436549838471258e-02  5.4762781736757225e-03  1.6182098714905877e-05  9.9746188406673916e-06  8.8066015167858997e-06  8.4325861724813610e-06  8.1645419500464787e-06  7.9685300226658465e-06  7.8458637131555929e-06  7.7682100713577929e-06  7.7137767892479394e-06  7.6688303833841141e-06  7.6313195795745400e-06  7.6066158107981436e-06  7.5986825639294130e-06  7.6084270902576959e-06  7.6350678027617510e-06  7.6725387576929438e-06  7.7167177577542804e-06  7.7730456209270461e-06  7.8561924176275203e-06  7.9869623266801665e-06  8.2192799302875517e-06  8.4920684884314443e-06  9.0908748032740616e-06  1.0528198464424766e-05  1.6011332467502967e-05  2.2331986203408725e-03  3.2582085944236235e-02  8.7349558488131931e-02  1.6316621515135002e-01  2.5700791978531051e-01  3.6640818003330433e-01  4.8809557938443804e-01  6.0963333970203126e-01  7.4099684052357362e-01  9.3991394044705889e-01  9.9996766175603591e-01  9.9998775166550091e-01  9.9997841502202200e-01  9.9998959795846443e-01  9.9999307965941242e-01  9.9998613599969133e-01  9.9994662538149059e-01  9.1111190600049885e-01  7.6759998873838697e-01  6.3625448330034673e-01  5.0820245477234005e-01  3.8674907596355645e-01  2.7652248909590543e-01  1.8216176282909083e-01  1.0664330759768308e-01  5.1994240631592741e-02  1.6009790735554492e-02  4.0911187636165172e-05  1.2726379620799573e-05  9.5032577119600608e-06  8.4949675451215860e-06  8.0856389820069256e-06  7.8922269413200232e-06  7.7861236997451166e-06  7.7200372619624540e-06  7.6658833777604169e-06  7.6185632905248731e-06  7.5879333568360716e-06  7.5786189318472810e-06  7.5908269528348651e-06  7.6264478579483658e-06  7.6754865232629071e-06  7.7317167152955186e-06  7.8093029241763344e-06  7.9377692372536361e-06  8.1774832413811332e-06  8.8063428922877024e-06  9.9351165164836179e-06  1.2584547647564660e-05  3.1507159773826997e-05  1.1540278399111491e-02  4.7197663397842177e-02  1.0429051236998889e-01  1.7947100662710952e-01  2.7421684263019130e-01  3.8517075062810685e-01  5.0812594555477542e-01  6.3611766908576950e-01  7.6455973341959738e-01  9.3913872141715815e-01  9.9995841859815515e-01  9.9998654343491067e-01  9.9999306831488088e-01  9.9998877572190314e-01  9.9998898969951755e-01  9.9999360214836452e-01  9.9998940182606955e-01  9.9997584914807813e-01  9.9984303280723430e-01  8.8353882822626861e-01  7.6314119738540531e-01  6.3851430795588526e-01  5.1533914442607631e-01  3.9798383087401884e-01  2.9173014645175871e-01  2.0086697862812819e-01  1.2769152874655887e-01  7.3232977187415199e-02  3.5874497644307973e-02  1.1552562236031351e-02  6.1319723779499442e-05  1.6555667220762933e-05  1.1662020156850787e-05  1.0117055475920120e-05  9.3763352239419785e-06  8.9691878412250184e-06  8.7025041469236256e-06  8.5286121042811377e-06  8.4449144164401480e-06  8.4262836618204463e-06  8.4646632650288327e-06  8.5808359921144005e-06  8.7586612328325721e-06  9.0030176004604957e-06  9.4096635390750267e-06  1.0137594226129680e-05  1.1605622763146075e-05  1.5979417203384911e-05  4.8608923623262785e-05  8.5910047166780530e-03  3.0986097774809849e-02  7.0159899101693735e-02  1.2596461385594815e-01  1.9873901419687545e-01  2.8992401301760062e-01  3.9731691089091353e-01  5.1557884917296015e-01  6.4046861806435740e-01  7.6239872209737780e-01  8.9709862546738861e-01  9.9988878318726737e-01  9.9997569368002215e-01  9.9998902514451438e-01  9.9999344095653564e-01  9.9998965129139283e-01  9.9997991949268872e-01  9.9999041355624141e-01  9.9998605778510652e-01  9.9997492387750420e-01  9.9992563362099574e-01  9.6132478950671596e-01  8.5588552750676472e-01  7.4850726394935918e-01  6.3439690447573760e-01  5.1975510671945258e-01  4.1069588683668179e-01  3.1241170114483918e-01  2.2861894042160374e-01  1.6103970129037257e-01  1.0938955267560953e-01  7.2257516299109287e-02  4.6699257325545959e-02  2.8498965805817848e-02  1.6378574828308144e-02  9.2310808322448364e-03  4.7286165953675050e-03  1.8975186286228725e-03  3.7248432639778729e-04  1.1742973736709550e-04  7.9873529537780676e-05  7.2430728633689323e-05  7.8384231064973633e-05  1.1089816610317510e-04  3.1546048841315323e-04  1.6892666815378383e-03  4.3325314875269118e-03  8.4815349468091005e-03  1.5042343399155687e-02  2.5499381391457559e-02  4.3010453415227565e-02  7.0306381589850128e-02  1.0826203989063880e-01  1.5975464932188566e-01  2.2715580930123377e-01  3.1148246159482451e-01  4.1067376230049973e-01  5.2063811012081773e-01  6.3624300974224401e-01  7.5166805359683486e-01  8.5922893968205127e-01  9.7066853677570608e-01  9.9992265107799327e-01  9.9997231499985884e-01  9.9998485538049853e-01  9.9998978987517351e-01  9.9998487681971782e-01  9.9978560649545634e-01  9.9995687660200028e-01  9.9995444641425812e-01  9.9993730277666948e-01  9.9986289230996606e-01  9.8197769230713294e-01  9.0845760550104848e-01  8.2979657329119449e-01  7.3426953846304588e-01  6.3206053199683288e-01  5.2941270494973847e-01  4.3259695981282259e-01  3.4639413257399226e-01  2.7365008555361459e-01  2.1525193374076798e-01  1.7029309056611447e-01  1.3669876571634551e-01  1.1245918891439001e-01  9.5713219214502224e-02  8.4072778846737403e-02  7.5754815413395793e-02  7.0112726748213797e-02  6.6328666280019738e-02  6.3814955551008495e-02  6.2321350601453891e-02  6.1811407207068382e-02  6.2125744301644581e-02  6.3351002052623034e-02  6.5777335500802184e-02  6.9605607838389025e-02  7.5182190187103357e-02  8.3354860444538464e-02  9.5212549489169809e-02  1.1236026958437240e-01  1.3660395566624198e-01  1.6973744033386920e-01  2.1435937190141979e-01  2.7305840709220386e-01  3.4641019799560868e-01  4.3328445509777391e-01  5.3078262791396202e-01  6.3430798832492763e-01  7.3762159911533409e-01  8.3370017299627053e-01  9.1646594276393523e-01  9.8194533135634177e-01  9.9982872003120271e-01  9.9992872453236936e-01  9.9995439194799185e-01  9.9996273184176532e-01  9.9993977162069314e-01  3.3928026892170521e-01  6.4701090769592973e-01  8.0607596240205803e-01  9.0166596812891864e-01  9.4200063830337444e-01  9.4468434828432069e-01  9.2235368939902473e-01  8.7652804005992135e-01  8.0787860033519487e-01  7.2651731814237197e-01  6.3891203138176555e-01  5.5228691732909263e-01  4.722858317