<?xml version="1.0"?>
<VTKFile type="UnstructuredGrid"  version="0.1"  >
<UnstructuredGrid>
<Piece  NumberOfPoints="2601" NumberOfCells="5000">
<Points>
<DataArray  type="Float64"  NumberOfComponents="3"  format="ascii">0 0 0  0.03 0 0  0.06 0 0  0.09 0 0  0.12 0 0  0.15 0 0  0.18 0 0  0.21 0 0  0.24 0 0  0.27 0 0  0.3 0 0  0.33 0 0  0.36 0 0  0.39 0 0  0.42 0 0  0.45 0 0  0.48 0 0  0.51 0 0  0.54 0 0  0.57 0 0  0.6 0 0  0.63 0 0  0.66 0 0  0.6899999999999999 0 0  0.72 0 0  0.75 0 0  0.78 0 0  0.8100000000000001 0 0  0.84 0 0  0.87 0 0  0.9 0 0  0.93 0 0  0.96 0 0  0.99 0 0  1.02 0 0  1.05 0 0  1.08 0 0  1.11 0 0  1.14 0 0  1.17 0 0  1.2 0 0  1.23 0 0  1.26 0 0  1.29 0 0  1.32 0 0  1.35 0 0  1.38 0 0  1.41 0 0  1.44 0 0  1.47 0 0  1.5 0 0  0 0.02 0  0.03 0.02 0  0.06 0.02 0  0.09 0.02 0  0.12 0.02 0  0.15 0.02 0  0.18 0.02 0  0.21 0.02 0  0.24 0.02 0  0.27 0.02 0  0.3 0.02 0  0.33 0.02 0  0.36 0.02 0  0.39 0.02 0  0.42 0.02 0  0.45 0.02 0  0.48 0.02 0  0.51 0.02 0  0.54 0.02 0  0.57 0.02 0  0.6 0.02 0  0.63 0.02 0  0.66 0.02 0  0.6899999999999999 0.02 0  0.72 0.02 0  0.75 0.02 0  0.78 0.02 0  0.8100000000000001 0.02 0  0.84 0.02 0  0.87 0.02 0  0.9 0.02 0  0.93 0.02 0  0.96 0.02 0  0.99 0.02 0  1.02 0.02 0  1.05 0.02 0  1.08 0.02 0  1.11 0.02 0  1.14 0.02 0  1.17 0.02 0  1.2 0.02 0  1.23 0.02 0  1.26 0.02 0  1.29 0.02 0  1.32 0.02 0  1.35 0.02 0  1.38 0.02 0  1.41 0.02 0  1.44 0.02 0  1.47 0.02 0  1.5 0.02 0  0 0.04 0  0.03 0.04 0  0.06 0.04 0  0.09 0.04 0  0.12 0.04 0  0.15 0.04 0  0.18 0.04 0  0.21 0.04 0  0.24 0.04 0  0.27 0.04 0  0.3 0.04 0  0.33 0.04 0  0.36 0.04 0  0.39 0.04 0  0.42 0.04 0  0.45 0.04 0  0.48 0.04 0  0.51 0.04 0  0.54 0.04 0  0.57 0.04 0  0.6 0.04 0  0.63 0.04 0  0.66 0.04 0  0.6899999999999999 0.04 0  0.72 0.04 0  0.75 0.04 0  0.78 0.04 0  0.8100000000000001 0.04 0  0.84 0.04 0  0.87 0.04 0  0.9 0.04 0  0.93 0.04 0  0.96 0.04 0  0.99 0.04 0  1.02 0.04 0  1.05 0.04 0  1.08 0.04 0  1.11 0.04 0  1.14 0.04 0  1.17 0.04 0  1.2 0.04 0  1.23 0.04 0  1.26 0.04 0  1.29 0.04 0  1.32 0.04 0  1.35 0.04 0  1.38 0.04 0  1.41 0.04 0  1.44 0.04 0  1.47 0.04 0  1.5 0.04 0  0 0.06 0  0.03 0.06 0  0.06 0.06 0  0.09 0.06 0  0.12 0.06 0  0.15 0.06 0  0.18 0.06 0  0.21 0.06 0  0.24 0.06 0  0.27 0.06 0  0.3 0.06 0  0.33 0.06 0  0.36 0.06 0  0.39 0.06 0  0.42 0.06 0  0.45 0.06 0  0.48 0.06 0  0.51 0.06 0  0.54 0.06 0  0.57 0.06 0  0.6 0.06 0  0.63 0.06 0  0.66 0.06 0  0.6899999999999999 0.06 0  0.72 0.06 0  0.75 0.06 0  0.78 0.06 0  0.8100000000000001 0.06 0  0.84 0.06 0  0.87 0.06 0  0.9 0.06 0  0.93 0.06 0  0.96 0.06 0  0.99 0.06 0  1.02 0.06 0  1.05 0.06 0  1.08 0.06 0  1.11 0.06 0  1.14 0.06 0  1.17 0.06 0  1.2 0.06 0  1.23 0.06 0  1.26 0.06 0  1.29 0.06 0  1.32 0.06 0  1.35 0.06 0  1.38 0.06 0  1.41 0.06 0  1.44 0.06 0  1.47 0.06 0  1.5 0.06 0  0 0.08 0  0.03 0.08 0  0.06 0.08 0  0.09 0.08 0  0.12 0.08 0  0.15 0.08 0  0.18 0.08 0  0.21 0.08 0  0.24 0.08 0  0.27 0.08 0  0.3 0.08 0  0.33 0.08 0  0.36 0.08 0  0.39 0.08 0  0.42 0.08 0  0.45 0.08 0  0.48 0.08 0  0.51 0.08 0  0.54 0.08 0  0.57 0.08 0  0.6 0.08 0  0.63 0.08 0  0.66 0.08 0  0.6899999999999999 0.08 0  0.72 0.08 0  0.75 0.08 0  0.78 0.08 0  0.8100000000000001 0.08 0  0.84 0.08 0  0.87 0.08 0  0.9 0.08 0  0.93 0.08 0  0.96 0.08 0  0.99 0.08 0  1.02 0.08 0  1.05 0.08 0  1.08 0.08 0  1.11 0.08 0  1.14 0.08 0  1.17 0.08 0  1.2 0.08 0  1.23 0.08 0  1.26 0.08 0  1.29 0.08 0  1.32 0.08 0  1.35 0.08 0  1.38 0.08 0  1.41 0.08 0  1.44 0.08 0  1.47 0.08 0  1.5 0.08 0  0 0.1 0  0.03 0.1 0  0.06 0.1 0  0.09 0.1 0  0.12 0.1 0  0.15 0.1 0  0.18 0.1 0  0.21 0.1 0  0.24 0.1 0  0.27 0.1 0  0.3 0.1 0  0.33 0.1 0  0.36 0.1 0  0.39 0.1 0  0.42 0.1 0  0.45 0.1 0  0.48 0.1 0  0.51 0.1 0  0.54 0.1 0  0.57 0.1 0  0.6 0.1 0  0.63 0.1 0  0.66 0.1 0  0.6899999999999999 0.1 0  0.72 0.1 0  0.75 0.1 0  0.78 0.1 0  0.8100000000000001 0.1 0  0.84 0.1 0  0.87 0.1 0  0.9 0.1 0  0.93 0.1 0  0.96 0.1 0  0.99 0.1 0  1.02 0.1 0  1.05 0.1 0  1.08 0.1 0  1.11 0.1 0  1.14 0.1 0  1.17 0.1 0  1.2 0.1 0  1.23 0.1 0  1.26 0.1 0  1.29 0.1 0  1.32 0.1 0  1.35 0.1 0  1.38 0.1 0  1.41 0.1 0  1.44 0.1 0  1.47 0.1 0  1.5 0.1 0  0 0.12 0  0.03 0.12 0  0.06 0.12 0  0.09 0.12 0  0.12 0.12 0  0.15 0.12 0  0.18 0.12 0  0.21 0.12 0  0.24 0.12 0  0.27 0.12 0  0.3 0.12 0  0.33 0.12 0  0.36 0.12 0  0.39 0.12 0  0.42 0.12 0  0.45 0.12 0  0.48 0.12 0  0.51 0.12 0  0.54 0.12 0  0.57 0.12 0  0.6 0.12 0  0.63 0.12 0  0.66 0.12 0  0.6899999999999999 0.12 0  0.72 0.12 0  0.75 0.12 0  0.78 0.12 0  0.8100000000000001 0.12 0  0.84 0.12 0  0.87 0.12 0  0.9 0.12 0  0.93 0.12 0  0.96 0.12 0  0.99 0.12 0  1.02 0.12 0  1.05 0.12 0  1.08 0.12 0  1.11 0.12 0  1.14 0.12 0  1.17 0.12 0  1.2 0.12 0  1.23 0.12 0  1.26 0.12 0  1.29 0.12 0  1.32 0.12 0  1.35 0.12 0  1.38 0.12 0  1.41 0.12 0  1.44 0.12 0  1.47 0.12 0  1.5 0.12 0  0 0.14 0  0.03 0.14 0  0.06 0.14 0  0.09 0.14 0  0.12 0.14 0  0.15 0.14 0  0.18 0.14 0  0.21 0.14 0  0.24 0.14 0  0.27 0.14 0  0.3 0.14 0  0.33 0.14 0  0.36 0.14 0  0.39 0.14 0  0.42 0.14 0  0.45 0.14 0  0.48 0.14 0  0.51 0.14 0  0.54 0.14 0  0.57 0.14 0  0.6 0.14 0  0.63 0.14 0  0.66 0.14 0  0.6899999999999999 0.14 0  0.72 0.14 0  0.75 0.14 0  0.78 0.14 0  0.8100000000000001 0.14 0  0.84 0.14 0  0.87 0.14 0  0.9 0.14 0  0.93 0.14 0  0.96 0.14 0  0.99 0.14 0  1.02 0.14 0  1.05 0.14 0  1.08 0.14 0  1.11 0.14 0  1.14 0.14 0  1.17 0.14 0  1.2 0.14 0  1.23 0.14 0  1.26 0.14 0  1.29 0.14 0  1.32 0.14 0  1.35 0.14 0  1.38 0.14 0  1.41 0.14 0  1.44 0.14 0  1.47 0.14 0  1.5 0.14 0  0 0.16 0  0.03 0.16 0  0.06 0.16 0  0.09 0.16 0  0.12 0.16 0  0.15 0.16 0  0.18 0.16 0  0.21 0.16 0  0.24 0.16 0  0.27 0.16 0  0.3 0.16 0  0.33 0.16 0  0.36 0.16 0  0.39 0.16 0  0.42 0.16 0  0.45 0.16 0  0.48 0.16 0  0.51 0.16 0  0.54 0.16 0  0.57 0.16 0  0.6 0.16 0  0.63 0.16 0  0.66 0.16 0  0.6899999999999999 0.16 0  0.72 0.16 0  0.75 0.16 0  0.78 0.16 0  0.8100000000000001 0.16 0  0.84 0.16 0  0.87 0.16 0  0.9 0.16 0  0.93 0.16 0  0.96 0.16 0  0.99 0.16 0  1.02 0.16 0  1.05 0.16 0  1.08 0.16 0  1.11 0.16 0  1.14 0.16 0  1.17 0.16 0  1.2 0.16 0  1.23 0.16 0  1.26 0.16 0  1.29 0.16 0  1.32 0.16 0  1.35 0.16 0  1.38 0.16 0  1.41 0.16 0  1.44 0.16 0  1.47 0.16 0  1.5 0.16 0  0 0.18 0  0.03 0.18 0  0.06 0.18 0  0.09 0.18 0  0.12 0.18 0  0.15 0.18 0  0.18 0.18 0  0.21 0.18 0  0.24 0.18 0  0.27 0.18 0  0.3 0.18 0  0.33 0.18 0  0.36 0.18 0  0.39 0.18 0  0.42 0.18 0  0.45 0.18 0  0.48 0.18 0  0.51 0.18 0  0.54 0.18 0  0.57 0.18 0  0.6 0.18 0  0.63 0.18 0  0.66 0.18 0  0.6899999999999999 0.18 0  0.72 0.18 0  0.75 0.18 0  0.78 0.18 0  0.8100000000000001 0.18 0  0.84 0.18 0  0.87 0.18 0  0.9 0.18 0  0.93 0.18 0  0.96 0.18 0  0.99 0.18 0  1.02 0.18 0  1.05 0.18 0  1.08 0.18 0  1.11 0.18 0  1.14 0.18 0  1.17 0.18 0  1.2 0.18 0  1.23 0.18 0  1.26 0.18 0  1.29 0.18 0  1.32 0.18 0  1.35 0.18 0  1.38 0.18 0  1.41 0.18 0  1.44 0.18 0  1.47 0.18 0  1.5 0.18 0  0 0.2 0  0.03 0.2 0  0.06 0.2 0  0.09 0.2 0  0.12 0.2 0  0.15 0.2 0  0.18 0.2 0  0.21 0.2 0  0.24 0.2 0  0.27 0.2 0  0.3 0.2 0  0.33 0.2 0  0.36 0.2 0  0.39 0.2 0  0.42 0.2 0  0.45 0.2 0  0.48 0.2 0  0.51 0.2 0  0.54 0.2 0  0.57 0.2 0  0.6 0.2 0  0.63 0.2 0  0.66 0.2 0  0.6899999999999999 0.2 0  0.72 0.2 0  0.75 0.2 0  0.78 0.2 0  0.8100000000000001 0.2 0  0.84 0.2 0  0.87 0.2 0  0.9 0.2 0  0.93 0.2 0  0.96 0.2 0  0.99 0.2 0  1.02 0.2 0  1.05 0.2 0  1.08 0.2 0  1.11 0.2 0  1.14 0.2 0  1.17 0.2 0  1.2 0.2 0  1.23 0.2 0  1.26 0.2 0  1.29 0.2 0  1.32 0.2 0  1.35 0.2 0  1.38 0.2 0  1.41 0.2 0  1.44 0.2 0  1.47 0.2 0  1.5 0.2 0  0 0.22 0  0.03 0.22 0  0.06 0.22 0  0.09 0.22 0  0.12 0.22 0  0.15 0.22 0  0.18 0.22 0  0.21 0.22 0  0.24 0.22 0  0.27 0.22 0  0.3 0.22 0  0.33 0.22 0  0.36 0.22 0  0.39 0.22 0  0.42 0.22 0  0.45 0.22 0  0.48 0.22 0  0.51 0.22 0  0.54 0.22 0  0.57 0.22 0  0.6 0.22 0  0.63 0.22 0  0.66 0.22 0  0.6899999999999999 0.22 0  0.72 0.22 0  0.75 0.22 0  0.78 0.22 0  0.8100000000000001 0.22 0  0.84 0.22 0  0.87 0.22 0  0.9 0.22 0  0.93 0.22 0  0.96 0.22 0  0.99 0.22 0  1.02 0.22 0  1.05 0.22 0  1.08 0.22 0  1.11 0.22 0  1.14 0.22 0  1.17 0.22 0  1.2 0.22 0  1.23 0.22 0  1.26 0.22 0  1.29 0.22 0  1.32 0.22 0  1.35 0.22 0  1.38 0.22 0  1.41 0.22 0  1.44 0.22 0  1.47 0.22 0  1.5 0.22 0  0 0.24 0  0.03 0.24 0  0.06 0.24 0  0.09 0.24 0  0.12 0.24 0  0.15 0.24 0  0.18 0.24 0  0.21 0.24 0  0.24 0.24 0  0.27 0.24 0  0.3 0.24 0  0.33 0.24 0  0.36 0.24 0  0.39 0.24 0  0.42 0.24 0  0.45 0.24 0  0.48 0.24 0  0.51 0.24 0  0.54 0.24 0  0.57 0.24 0  0.6 0.24 0  0.63 0.24 0  0.66 0.24 0  0.6899999999999999 0.24 0  0.72 0.24 0  0.75 0.24 0  0.78 0.24 0  0.8100000000000001 0.24 0  0.84 0.24 0  0.87 0.24 0  0.9 0.24 0  0.93 0.24 0  0.96 0.24 0  0.99 0.24 0  1.02 0.24 0  1.05 0.24 0  1.08 0.24 0  1.11 0.24 0  1.14 0.24 0  1.17 0.24 0  1.2 0.24 0  1.23 0.24 0  1.26 0.24 0  1.29 0.24 0  1.32 0.24 0  1.35 0.24 0  1.38 0.24 0  1.41 0.24 0  1.44 0.24 0  1.47 0.24 0  1.5 0.24 0  0 0.26 0  0.03 0.26 0  0.06 0.26 0  0.09 0.26 0  0.12 0.26 0  0.15 0.26 0  0.18 0.26 0  0.21 0.26 0  0.24 0.26 0  0.27 0.26 0  0.3 0.26 0  0.33 0.26 0  0.36 0.26 0  0.39 0.26 0  0.42 0.26 0  0.45 0.26 0  0.48 0.26 0  0.51 0.26 0  0.54 0.26 0  0.57 0.26 0  0.6 0.26 0  0.63 0.26 0  0.66 0.26 0  0.6899999999999999 0.26 0  0.72 0.26 0  0.75 0.26 0  0.78 0.26 0  0.8100000000000001 0.26 0  0.84 0.26 0  0.87 0.26 0  0.9 0.26 0  0.93 0.26 0  0.96 0.26 0  0.99 0.26 0  1.02 0.26 0  1.05 0.26 0  1.08 0.26 0  1.11 0.26 0  1.14 0.26 0  1.17 0.26 0  1.2 0.26 0  1.23 0.26 0  1.26 0.26 0  1.29 0.26 0  1.32 0.26 0  1.35 0.26 0  1.38 0.26 0  1.41 0.26 0  1.44 0.26 0  1.47 0.26 0  1.5 0.26 0  0 0.28 0  0.03 0.28 0  0.06 0.28 0  0.09 0.28 0  0.12 0.28 0  0.15 0.28 0  0.18 0.28 0  0.21 0.28 0  0.24 0.28 0  0.27 0.28 0  0.3 0.28 0  0.33 0.28 0  0.36 0.28 0  0.39 0.28 0  0.42 0.28 0  0.45 0.28 0  0.48 0.28 0  0.51 0.28 0  0.54 0.28 0  0.57 0.28 0  0.6 0.28 0  0.63 0.28 0  0.66 0.28 0  0.6899999999999999 0.28 0  0.72 0.28 0  0.75 0.28 0  0.78 0.28 0  0.8100000000000001 0.28 0  0.84 0.28 0  0.87 0.28 0  0.9 0.28 0  0.93 0.28 0  0.96 0.28 0  0.99 0.28 0  1.02 0.28
[...]
<PointData  Scalars="ControlVisualisation"> 
<DataArray  type="Float64"  Name="ControlVisualisation"  format="ascii">1.0141217167998159e-01  7.0329543054119231e-02  7.0419516439218982e-02  7.0610271135667729e-02  7.0898750678218242e-02  7.1241436997368277e-02  7.1588668461276997e-02  7.1912622459537112e-02  7.2206061481387640e-02  7.2465986780567940e-02  7.2683447351756206e-02  7.2846577719285113e-02  7.2948445424750999e-02  7.2991391369264080e-02  7.2987053996627985e-02  7.2953346140300745e-02  7.2909492834230205e-02  7.2871233346294612e-02  7.2848071251641083e-02  7.2842869214828465e-02  7.2853073895595116e-02  7.2872840973621011e-02  7.2895429008925830e-02  7.2915098266309500e-02  7.2927997274170805e-02  7.2932188512929860e-02  7.2927401066653491e-02  7.2914980886090858e-02  7.2898050227287403e-02  7.2881461755535532e-02  7.2871111765768021e-02  7.2872610325365503e-02  7.2889596794485950e-02  7.2921802619730941e-02  7.2963071204803109e-02  7.3000307092072031e-02  7.3014811542114741e-02  7.2986768975694297e-02  7.2901530172290924e-02  7.2754456928515801e-02  7.2551365944289778e-02  7.2303090602996181e-02  7.2017449995421284e-02  7.1697890161821723e-02  7.1352187435977196e-02  7.1003719449007532e-02  7.0695189920369800e-02  7.0472540114432158e-02  7.0352598252199805e-02  7.0309590898388188e-02  1.8754863468083205e-01  7.0318515439849752e-02  3.6536785348590055e-02  3.6750716844578417e-02  3.7238033008996599e-02  3.8027990968228093e-02  3.9023876951754563e-02  4.0075194024701236e-02  4.1069637510331491e-02  4.1960374415914235e-02  4.2736333000596247e-02  4.3385560912153336e-02  4.3886442302968037e-02  4.4222619798078726e-02  4.4398540116194207e-02  4.4443285766476472e-02  4.4402345499745234e-02  4.4323144119715101e-02  4.4243467789346548e-02  4.4187166022936472e-02  4.4164688938978944e-02  4.4175220298604455e-02  4.4209636027138642e-02  4.4254760296683737e-02  4.4297965235600353e-02  4.4330074103085100e-02  4.4345931401859058e-02  4.4343885380082479e-02  4.4325676139959316e-02  4.4296962108506248e-02  4.4267273665895383e-02  4.4248152391295231e-02  4.4250054631483106e-02  4.4279694825182583e-02  4.4337602027837431e-02  4.4414185283433036e-02  4.4484868943861694e-02  4.4508218593589534e-02  4.4432616291475033e-02  4.4213020833174140e-02  4.3828633105555445e-02  4.3287069667427104e-02  4.2608631326466910e-02  4.1803939170420336e-02  4.0874062566744467e-02  3.9839932418891770e-02  3.8774655173632447e-02  3.7809600927685878e-02  3.7089310633667626e-02  3.6679050241457178e-02  3.6512855509417422e-02  7.0308076378968340e-02  7.0351026726017493e-02  3.6626403242055634e-02  3.7041853869100978e-02  3.7985109191474360e-02  3.9542076199523421e-02  4.1525540465027488e-02  4.3618681995745819e-02  4.5569703555951913e-02  4.7272026340472353e-02  4.8713800305252776e-02  4.9891204162657646e-02  5.0777136692018082e-02  5.1350571975110462e-02  5.1629322020793539e-02  5.1676289186825444e-02  5.1580112210998286e-02  5.1424991614848273e-02  5.1272681788148235e-02  5.1160372200351509e-02  5.1104273003048567e-02  5.1103932856970860e-02  5.1145998301652812e-02  5.1209681298168969e-02  5.1274415040926398e-02  5.1325395485705534e-02  5.1354501607745386e-02  5.1358852781894372e-02  5.1340506506792991e-02  5.1308079648653547e-02  5.1277295141866838e-02  5.1266989309991587e-02  5.1292442799242034e-02  5.1361962010641950e-02  5.1476104612549992e-02  5.1622527068424510e-02  5.1765374520459768e-02  5.1836421559477291e-02  5.1741436919716458e-02  5.1392693777222144e-02  5.0751086307361387e-02  4.9836929103320368e-02  4.8683874065314381e-02  4.7275649031505350e-02  4.5559420841277183e-02  4.3544920354708160e-02  4.1386794593555473e-02  3.9379866412158473e-02  3.7854709962790715e-02  3.6971806180255695e-02  3.6596781190950840e-02  7.0328542645691036e-02  7.0393804098777740e-02  3.6777346547089640e-02  3.7531580062272654e-02  3.9137847111161507e-02  4.1626705312305043e-02  4.4544349613262341e-02  4.7327843550808137e-02  4.9665750189868810e-02  5.1551915027932681e-02  5.3099629827457556e-02  5.4355007505949175e-02  5.5266916753892122e-02  5.5782960481246306e-02  5.5924682555076516e-02  5.5792049029118565e-02  5.5518448576086517e-02  5.5214919371814934e-02  5.4952882032212727e-02  5.4768373353208180e-02  5.4667672635974968e-02  5.4640265241284333e-02  5.4666633113335819e-02  5.4721418710829382e-02  5.4780867577270534e-02  5.4829362078639442e-02  5.4859529797025373e-02  5.4869067199281009e-02  5.4860129669498853e-02  5.4842917199134956e-02  5.4838016163895532e-02  5.4870053714451889e-02  5.4956186582742095e-02  5.5104109270382812e-02  5.5318154251169031e-02  5.5594106630649225e-02  5.5899567124987358e-02  5.6152819905738338e-02  5.6219907016421870e-02  5.5955651502597015e-02  5.5282316460909364e-02  5.4256991852040845e-02  5.3024544147803526e-02  5.1608322915272523e-02  4.9813254032915345e-02  4.7441545896626240e-02  4.4528066127806160e-02  4.1459967566796548e-02  3.8918942584831202e-02  3.7380075001259741e-02  3.6716909642441661e-02  7.0366634387752536e-02  7.0421302186059576e-02  3.7063088978799966e-02  3.8850098441212441e-02  4.2340234095916564e-02  4.6902586453435244e-02  5.1161547407546852e-02  5.4307468821894224e-02  5.6382572110786455e-02  5.7815486105898997e-02  5.8964660807373385e-02  5.9853487088725191e-02  6.0322780653673594e-02  6.0313821665437695e-02  5.9896481193744092e-02  5.9217766776133801e-02  5.8460025980769437e-02  5.7756297802341872e-02  5.7194595441637755e-02  5.6817091029235406e-02  5.6601169831063426e-02  5.6503304059923716e-02  5.6487129949792360e-02  5.6517515757863936e-02  5.6563282442715163e-02  5.6605101618914508e-02  5.6635063108911803e-02  5.6650905611512550e-02  5.6654501020489127e-02  5.6658691531286359e-02  5.6693764693493784e-02  5.6798552618184804e-02  5.6999156068052455e-02  5.7307178006179425e-02  5.7738370196808018e-02  5.8307745712246686e-02  5.9000277643791461e-02  5.9742490700210267e-02  6.0389150698754376e-02  6.0757797867861459e-02  6.0691965765828707e-02  6.0132294733907514e-02  5.9212879407547832e-02  5.8117167648753458e-02  5.6707254369516555e-02  5.4585310509708759e-02  5.1330967950204025e-02  4.6838643686509196e-02  4.1979932611908605e-02  3.8447448204120792e-02  3.6906832953222189e-02  7.0403253400020932e-02  7.0452974118642792e-02  3.7924783584815713e-02  4.3228472829192031e-02  5.1642651070730822e-02  6.0157061779363259e-02  6.5819006940025793e-02  6.7775102462936929e-02  6.7736450576754523e-02  6.7461336915467365e-02  6.7371652543005395e-02  6.7201764222396820e-02  6.6706620934090230e-02  6.5824203773026654e-02  6.4609786272070729e-02  6.3186286478784937e-02  6.1758290415107935e-02  6.0442734850247530e-02  5.9394701361718337e-02  5.8725276631646783e-02  5.8357819665641686e-02  5.8182935174285924e-02  5.8137646215007326e-02  5.8166728592748178e-02  5.8219986800233159e-02  5.8268443327289150e-02  5.8303618427505005e-02  5.8324434451619916e-02  5.8331110698942805e-02  5.8336714925172596e-02  5.8383103975942985e-02  5.8533543390975572e-02  5.8833439857729979e-02  5.9302323920860690e-02  5.9970889488688187e-02  6.0871047434066392e-02  6.2004775420825976e-02  6.3333237048241786e-02  6.4758795704986230e-02  6.6144513790173914e-02  6.7354303828914344e-02  6.8252140272735518e-02  6.8740538750717631e-02  6.8719394964003477e-02  6.7966076734578593e-02  6.6661778334000582e-02  6.4873459488906410e-02  6.0486733951759866e-02  5.1938268122852467e-02  4.2331824273382335e-02  3.7369849879254513e-02  7.0416243036798193e-02  7.0889615237172771e-02  4.0619098035231622e-02  5.6910392934699565e-02  7.7240528078934417e-02  8.4401934708263571e-02  8.7144845480121025e-02  8.6389293418510094e-02  8.2959598767729514e-02  7.9447441464628704e-02  7.6967770702943583e-02  7.4828545031249444e-02  7.2852002129349294e-02  7.0978485357658896e-02  6.8872173187846011e-02  6.6543217604420432e-02  6.4478991291698401e-02  6.2700109012903682e-02  6.1419265578939702e-02  6.0797937110746450e-02  6.0530217401875572e-02  6.0417658477247095e-02  6.0436586742582600e-02  6.0532909911947611e-02  6.0632390344510650e-02  6.0695082126697372e-02  6.0717463660335425e-02  6.0702386292154777e-02  6.0641273980044805e-02  6.0533319216759772e-02  6.0417099900253797e-02  6.0367901995086508e-02  6.0433697542604803e-02  6.0648677428084156e-02  6.1144868745448729e-02  6.2086850235584752e-02  6.3551946319297309e-02  6.5528957529358736e-02  6.7901917728437233e-02  7.0436018371923134e-02  7.2878364619613320e-02  7.5292805044794700e-02  7.8068752137347250e-02  8.1010802885799843e-02  8.3190320805594242e-02  8.4070407451617285e-02  8.3396043241094314e-02  8.2062152132230434e-02  7.6721750647431738e-02  5.9663221145622856e-02  4.0266340423095993e-02  7.0436420278650907e-02  7.3778621008260353e-02  5.5496864139117863e-02  7.1829497533117695e-02  1.6687999815636009e-01  1.8654209888335208e-01  1.8497811545921375e-01  1.6538656092483622e-01  1.4471522736307130e-01  1.2602295578738656e-01  1.0928700491696576e-01  9.5725992717641803e-02  8.5658399507757860e-02  7.8695382782674891e-02  7.3200713435939313e-02  6.8595359254485747e-02  6.5538576490426853e-02  6.2961762928640572e-02  6.0813590536958916e-02  5.9973562604015117e-02  5.9924786897892338e-02  6.0038261127913113e-02  6.0265155866397926e-02  6.0569933095208334e-02  6.0826391592914864e-02  6.0954927006059909e-02  6.0952110080067949e-02  6.0831018260460619e-02  6.0587743657139877e-02  6.0239327632944373e-02  5.9868257487080995e-02  5.9616432603930007e-02  5.9562887464694042e-02  5.9774843592744958e-02  6.0567106894248199e-02  6.2377395162579237e-02  6.5597956828378018e-02  7.0177254918647847e-02  7.5337712114224034e-02  8.0484023897277490e-02  8.6001179721512125e-02  9.3895459186634653e-02  1.0811531832499294e-01  1.2952190297043265e-01  1.5442383436241769e-01  1.7756035865018044e-01  1.9192147060758447e-01  1.8769566136258106e-01  1.6157842483928786e-01  1.1721718707259229e-01  5.5793092469526705e-02  7.1028083009026133e-02  9.9729449059602446e-02  1.0986030456794435e-01  2.8621742431944402e-01  3.1741117568916349e-01  2.7575727387550275e-01  2.5157922255570042e-01  2.3712918304327260e-01  2.1731812736842382e-01  1.9531294760842352e-01  1.6536702595619712e-01  1.3479917243294581e-01  1.1124476281681731e-01  9.4458396769697028e-02  8.1534745535246381e-02  7.2348689607594371e-02  7.3392883352392788e-02  6.6193182506834619e-02  5.9978591454065450e-02  5.8587036982724196e-02  5.6751488107857469e-02  5.5494485801149497e-02  5.5161175230063413e-02  5.5338813976195736e-02  5.5676064109890934e-02  5.5917014542886750e-02  5.5975494475305705e-02  5.5857572110353686e-02  5.5596378554240815e-02  5.5312391219542463e-02  5.5261728311984837e-02  5.5812964285498354e-02  5.7374749934935652e-02  6.0567039435851310e-02  6.5570277023569684e-02  7.0964084697071980e-02  7.5220983747612935e-02  8.0377202982150467e-02  8.8555569067545054e-02  9.9214763152557964e-02  1.1407617248085136e-01  1.3688228826371779e-01  1.7043865873215019e-01  2.0693372243337513e-01  2.3291315409078736e-01  2.5082255015666999e-01  2.6715545280172920e-01  2.8341840678830882e-01  2.9964058034583729e-01  2.7802075063954185e-01  1.4880060760787486e-01  8.6758703522166136e-02  4.4943060282275699e-01  4.8111228274090384e-01  5.2411606506316244e-01  4.7341350138287336e-01  4.2912913742652148e-01  3.8595287688945534e-01  3.4069434827957257e-01  2.9921788117955705e-01  2.6043560148657408e-01  2.1906310951318853e-01  1.7962290222924512e-01  1.4895326864769709e-01  1.2628488396686188e-01  1.0848673170970355e-01  9.4218148502265023e-02  8.3654280726904645e-02  6.7141496819716651e-02  1.4567549630464804e-04  6.2627157964734392e-02  6.3696050509910410e-02  6.2802511354682872e-02  6.0613853168324794e-02  5.9619594590901819e-02  5.9271584126153617e-02  5.9066049093665529e-02  5.9006599061958251e-02  5.9075175757511485e-02  5.9325275824759501e-02  6.0089991654096418e-02  6.1582821795938887e-02  6.3301510577406864e-02  6.4186340420375201e-02  6.5964276086046811e-02  7.0688122946141324e-02  7.9594133926219168e-02  8.8138907233705960e-02  9.7560477325772221e-02  1.0963375452298993e-01  1.2612043636023174e-01  1.4925612962147577e-01  1.8124209840782812e-01  2.2158802430248503e-01  2.6643622565886060e-01  3.1067250628049931e-01  3.5256439682559604e-01  3.9476746735268553e-01  4.4046357516445589e-01  4.9137631139810123e-01  5.2251448023188241e-01  5.3215438111360758e-01  3.8306494075249115e-01  8.4261640388727832e-01  8.5121742111303744e-01  7.7085467322008872e-01  6.8028666975084950e-01  5.9640741222697735e-01  5.2201723248458931e-01  4.6122874263419228e-01  4.0424329216848642e-01  3.4661952588818484e-01  2.8895793363306882e-01  2.3533915194284427e-01  1.9237130499351224e-01  1.6128686869765249e-01  1.3863973309155353e-01  1.2138700333731268e-01  1.0760840385735754e-01  9.7035077906312606e-02  8.4318564784184466e-02  7.7492042338832653e-02  7.3563338105131021e-02  6.3479466322512168e-02  5.8005717314267416e-02  5.9274841145220226e-02  5.9949953310114913e-02  5.9789888296463319e-02  5.9750586454978910e-02  5.9815672282829309e-02  6.0284567725352303e-02  6.1045233542683819e-02  6.2850473586430894e-02  6.8048564150748142e-02  7.4824706818674647e-02  8.1847680430054470e-02  8.8893438703348274e-02  9.6564595939460054e-02  1.0682771683987741e-01  1.2027875107962913e-01  1.3736049365289754e-01  1.6046670635447957e-01  1.9358911660848199e-01  2.3860970075106186e-01  2.9237200845216432e-01  3.4937204201220484e-01  4.0693950032658871e-01  4.6716655138255020e-01  5.3402351603807829e-01  6.0764871618312100e-01  6.9146807554602452e-01  7.7956443245351148e-01  8.6217445341270205e-01  8.1278493115309902e-01  9.2478627284001702e-01  9.4051587248008617e-01  8.9331316386517645e-01  8.1977082195113182e-01  7.2889881946764457e-01  6.3861385983939423e-01  5.6215153324326195e-01  4.9791628243466235e-01  4.3659451547736550e-01  3.7416148973275615e-01  3.1166540919103614e-01  2.5472582458695736e-01  2.0898587446212738e-01  1.7540204823629071e-01  1.5133931384815405e-01  1.3323242534431060e-01  1.1868366604800351e-01  1.0769939199923159e-01  9.9338652844378109e-02  9.1136844394629740e-02  8.4351824277560244e-02  8.0383137181750830e-02  7.8079909533375652e-02  7.6710155273107525e-02  7.5763028801351912e-02  7.5275885375495566e-02  7.5591113937247947e-02  7.6684100480442954e-02  7.8432576150329586e-02  8.0877371849555221e-02  8.4401083749050393e-02  8.9836325276132598e-02  9.7900651413206696e-02  1.0827762220695959e-01  1.2032125012903394e-01  1.3472402529294619e-01  1.5360735679907178e-01  1.7957010909765270e-01  2.1536742701597655e-01  2.6270323459228972e-01  3.1994617180210705e-01  3.8242579420716760e-01  4.4561642469670570e-01  5.0833157481289681e-01  5.7500842460787371e-01  6.5096865427663253e-01  7.3586518519170829e-01  8.2563992338105130e-01  9.0087472506394861e-01  9.4373847090148499e-01  9.1361824815262815e-01  9.4377301849854722e-01  9.6112330408028934e-01  9.3318382767265440e-01  8.8134791119628708e-01  8.0905572878878440e-01  7.2894699358501613e-01  6.5265835248296622e-01  5.8651583729128709e-01  5.2613987984349586e-01  4.6538751968366082e-01  4.0264272256066408e-01  3.4014732918237423e-01  2.8287958429995791e-01  2.3496018830959470e-01  1.9771937794005728e-01  1.7002915451509323e-01  1.4934612189196228e-01  1.3315972130953524e-01  1.1993006356444121e-01  1.0915623295555976e-01  1.0126542477836187e-01  9.6218781443933005e-02  9.2807012587678900e-02  9.0268015488420936e-02  8.8548912482721995e-02  8.7883665015980397e-02  8.8343711506402731e-02  8.9889210103039865e-02  9.2570753710401243e-02  9.6551464755779859e-02  1.0218836514091570e-01  1.1011938903842411e-01  1.2095244445335071e-01  1.3495959001133087e-01  1.5275438761534649e-01  1.7598165111606259e-01  2.0657328408375381e-01  2.4580127785695990e-01  2.9414340490509450e-01  3.5081871826781996e-01  4.1295691574045484e-01  4.7647499634304846e-01  5.3851674225342983e-01  6.0009240887289772e-01  6.6655207873487987e-01  7.3976091503699914e-01  8.1616617995915131e-01  8.8524790671755960e-01  9.3472203381555408e-01  9.6149438766729700e-01  9.4104580093466372e-01  9.4134806580731212e-01  9.6255250687303051e-01  9.3934797469628861e-01  8.9826561339279165e-01  8.4195544421953472e-01  7.7783276348691732e-01  7.1370055660181730e-01  6.5476877956303747e-01  6.0017816262426660e-01  5.4478691505430887e-01  4.8641346438529115e-01  4.2611290019279613e-01  3.6708030881890097e-01  3.1285522447885517e-01  2.6583280887614541e-01  2.2720109921882115e-01  1.9690895788192667e-01  1.7350718091248107e-01  1.5493223725028490e-01  1.4002237941981593e-01  1.2882137499052532e-01  1.2104494032277827e-01  1.1559755674852888e-01  1.1175095329186503e-01  1.0937466952349481e-01  1.0855148114146518e-01  1.0929373929979724e-01  1.1155277450533582e-01  1.1537179771972893e-01  1.2104973126781846e-01  1.2928043720553414e-01  1.4102950876486786e-01  1.5711580832603847e-01  1.7807524717636386e-01  2.0463762255891760e-01  2.3780125495361087e-01  2.7807973904620303e-01  3.2524050002867089e-01  3.7869054817423276e-01  4.3716405509784817e-01  4.9796919377110760e-01  5.5766390379982278e-01  6.1412619561106541e-01  6.6845683253526600e-01  7.2496478345739623e-01  7.8527111117693127e-01  8.4534610686185585e-01  8.9841711993459505e-01  9.3840263511290878e-01  9.6197626975407524e-01  9.4389147452572475e-01  9.1440930711330071e-01  9.4819229030175023e-01  9.2244786753861463e-01  8.8467101496532441e-01  8.3912176518295101e-01  7.9063128971124097e-01  7.4298642066295306e-01  6.9796419648212682e-01  6.5410574752112194e-01  6.0735801227888064e-01  5.5607847080642903e-01  5.0153940075329506e-01  4.4643484682203394e-01  3.9349649574614964e-01  3.4462703639875103e-01  3.0112714305405319e-01  2.6393936127083362e-01  2.3323477676632415e-01  2.0830976446866512e-01  1.8842212791040353e-01  1.7334074098567226e-01  1.6263381047816283e-01  1.5521646470324485e-01  1.5009929672270178e-01  1.4694688596424402e-01  1.4584590832962549e-01  1.4690663576160132e-01  1.5017122202563557e-01  1.5576884474318875e-01  1.6412242901059865e-01  1.7603291139164443e-01  1.9246527747156753e-01  2.1414986820844534e-01  2.4142365261670060e-01  2.7439833976743305e-01  3.1298305081185074e-01  3.5674572037947688e-01  4.0508680651124818e-01  4.5740834744309256e-01  5.1253794266189301e-01  5.6791333123273491e-01  6.2017460099125810e-01  6.6713322706615474e-01  7.0929118683448877e-01  7.5038138170376756e-01  7.9415818250939008e-01  8.4020567936207291e-01  8.8276363103845723e-01  9.1839399295542690e-01  9.4564345784355086e-01  9.2558036815789690e-01  8.1327709256984371e-01  8.8787120842687051e-01  8.6374066454640397e-01  8.3477582864503952e-01  8.0077242517907554e-01  7.7006023463548590e-01  7.4219953258372995e-01  7.1526853055382777e-01  6.8603748012697296e-01  6.5120092522355710e-01  6.1002439445295753e-01  5.6417583757619127e-01  5.1635952545837283e-01  4.6906133148555512e-01  4.2396079763980182e-01  3.8220678956917709e-01  3.4473884475921712e-01  3.1209647152185938e-01  2.8424462070898737e-01  2.6094326866986273e-01  2.4214948871664457e-01  2.2780232035862155e-01  2.1746184385135703e-01  2.1049458421577455e-01  2.0650768549732723e-01  2.0544787080493837e-01  2.0739344867531850e-01  2.1240172980139527e-01  2.2056019160139120e-01  2.3210848550234475e-01  2.4746256681936735e-01  2.6709547899688352e-01  2.9136783127918242e-01  3.2043768105851989e-01  3.5423592496316703e-01  3.9239244671940182e-01  4.3422202610801502e-01  4.7892915339144077e-01  5.2572602313422989e-01  5.7338636853563663e-01  6.1957659776896234e-01  6.6136104776908400e-01  6.9655804602742177e-01  7.2497072449545663e-01  7.4902887081728120e-01  7.7309872187582873e-01  8.0156642466667916e-01  8.3082291099098105e-01  8.6049046393894058e-01  8.8167357433906224e-01  8.4560787603366316e-01  3.8762786495817120e-01  6.2695704641626304e-01  6.9872526520128952e-01  7.3146307220461182e-01  7.3117433090439943e-01  7.2280179576099213e-01  7.1411999857344954e-01  7.0496062293495287e-01  6.9147556966577339e-01  6.7059833991388196e-01  6.4238384102414514e-01  6.0873043613683797e-01  5.719986796