<?xml version="1.0"?>
<VTKFile type="UnstructuredGrid"  version="0.1"  >
<UnstructuredGrid>
<Piece  NumberOfPoints="2601" NumberOfCells="5000">
<Points>
<DataArray  type="Float64"  NumberOfComponents="3"  format="ascii">0 0 0  0.03 0 0  0.06 0 0  0.09 0 0  0.12 0 0  0.15 0 0  0.18 0 0  0.21 0 0  0.24 0 0  0.27 0 0  0.3 0 0  0.33 0 0  0.36 0 0  0.39 0 0  0.42 0 0  0.45 0 0  0.48 0 0  0.51 0 0  0.54 0 0  0.57 0 0  0.6 0 0  0.63 0 0  0.66 0 0  0.6899999999999999 0 0  0.72 0 0  0.75 0 0  0.78 0 0  0.8100000000000001 0 0  0.84 0 0  0.87 0 0  0.9 0 0  0.93 0 0  0.96 0 0  0.99 0 0  1.02 0 0  1.05 0 0  1.08 0 0  1.11 0 0  1.14 0 0  1.17 0 0  1.2 0 0  1.23 0 0  1.26 0 0  1.29 0 0  1.32 0 0  1.35 0 0  1.38 0 0  1.41 0 0  1.44 0 0  1.47 0 0  1.5 0 0  0 0.02 0  0.03 0.02 0  0.06 0.02 0  0.09 0.02 0  0.12 0.02 0  0.15 0.02 0  0.18 0.02 0  0.21 0.02 0  0.24 0.02 0  0.27 0.02 0  0.3 0.02 0  0.33 0.02 0  0.36 0.02 0  0.39 0.02 0  0.42 0.02 0  0.45 0.02 0  0.48 0.02 0  0.51 0.02 0  0.54 0.02 0  0.57 0.02 0  0.6 0.02 0  0.63 0.02 0  0.66 0.02 0  0.6899999999999999 0.02 0  0.72 0.02 0  0.75 0.02 0  0.78 0.02 0  0.8100000000000001 0.02 0  0.84 0.02 0  0.87 0.02 0  0.9 0.02 0  0.93 0.02 0  0.96 0.02 0  0.99 0.02 0  1.02 0.02 0  1.05 0.02 0  1.08 0.02 0  1.11 0.02 0  1.14 0.02 0  1.17 0.02 0  1.2 0.02 0  1.23 0.02 0  1.26 0.02 0  1.29 0.02 0  1.32 0.02 0  1.35 0.02 0  1.38 0.02 0  1.41 0.02 0  1.44 0.02 0  1.47 0.02 0  1.5 0.02 0  0 0.04 0  0.03 0.04 0  0.06 0.04 0  0.09 0.04 0  0.12 0.04 0  0.15 0.04 0  0.18 0.04 0  0.21 0.04 0  0.24 0.04 0  0.27 0.04 0  0.3 0.04 0  0.33 0.04 0  0.36 0.04 0  0.39 0.04 0  0.42 0.04 0  0.45 0.04 0  0.48 0.04 0  0.51 0.04 0  0.54 0.04 0  0.57 0.04 0  0.6 0.04 0  0.63 0.04 0  0.66 0.04 0  0.6899999999999999 0.04 0  0.72 0.04 0  0.75 0.04 0  0.78 0.04 0  0.8100000000000001 0.04 0  0.84 0.04 0  0.87 0.04 0  0.9 0.04 0  0.93 0.04 0  0.96 0.04 0  0.99 0.04 0  1.02 0.04 0  1.05 0.04 0  1.08 0.04 0  1.11 0.04 0  1.14 0.04 0  1.17 0.04 0  1.2 0.04 0  1.23 0.04 0  1.26 0.04 0  1.29 0.04 0  1.32 0.04 0  1.35 0.04 0  1.38 0.04 0  1.41 0.04 0  1.44 0.04 0  1.47 0.04 0  1.5 0.04 0  0 0.06 0  0.03 0.06 0  0.06 0.06 0  0.09 0.06 0  0.12 0.06 0  0.15 0.06 0  0.18 0.06 0  0.21 0.06 0  0.24 0.06 0  0.27 0.06 0  0.3 0.06 0  0.33 0.06 0  0.36 0.06 0  0.39 0.06 0  0.42 0.06 0  0.45 0.06 0  0.48 0.06 0  0.51 0.06 0  0.54 0.06 0  0.57 0.06 0  0.6 0.06 0  0.63 0.06 0  0.66 0.06 0  0.6899999999999999 0.06 0  0.72 0.06 0  0.75 0.06 0  0.78 0.06 0  0.8100000000000001 0.06 0  0.84 0.06 0  0.87 0.06 0  0.9 0.06 0  0.93 0.06 0  0.96 0.06 0  0.99 0.06 0  1.02 0.06 0  1.05 0.06 0  1.08 0.06 0  1.11 0.06 0  1.14 0.06 0  1.17 0.06 0  1.2 0.06 0  1.23 0.06 0  1.26 0.06 0  1.29 0.06 0  1.32 0.06 0  1.35 0.06 0  1.38 0.06 0  1.41 0.06 0  1.44 0.06 0  1.47 0.06 0  1.5 0.06 0  0 0.08 0  0.03 0.08 0  0.06 0.08 0  0.09 0.08 0  0.12 0.08 0  0.15 0.08 0  0.18 0.08 0  0.21 0.08 0  0.24 0.08 0  0.27 0.08 0  0.3 0.08 0  0.33 0.08 0  0.36 0.08 0  0.39 0.08 0  0.42 0.08 0  0.45 0.08 0  0.48 0.08 0  0.51 0.08 0  0.54 0.08 0  0.57 0.08 0  0.6 0.08 0  0.63 0.08 0  0.66 0.08 0  0.6899999999999999 0.08 0  0.72 0.08 0  0.75 0.08 0  0.78 0.08 0  0.8100000000000001 0.08 0  0.84 0.08 0  0.87 0.08 0  0.9 0.08 0  0.93 0.08 0  0.96 0.08 0  0.99 0.08 0  1.02 0.08 0  1.05 0.08 0  1.08 0.08 0  1.11 0.08 0  1.14 0.08 0  1.17 0.08 0  1.2 0.08 0  1.23 0.08 0  1.26 0.08 0  1.29 0.08 0  1.32 0.08 0  1.35 0.08 0  1.38 0.08 0  1.41 0.08 0  1.44 0.08 0  1.47 0.08 0  1.5 0.08 0  0 0.1 0  0.03 0.1 0  0.06 0.1 0  0.09 0.1 0  0.12 0.1 0  0.15 0.1 0  0.18 0.1 0  0.21 0.1 0  0.24 0.1 0  0.27 0.1 0  0.3 0.1 0  0.33 0.1 0  0.36 0.1 0  0.39 0.1 0  0.42 0.1 0  0.45 0.1 0  0.48 0.1 0  0.51 0.1 0  0.54 0.1 0  0.57 0.1 0  0.6 0.1 0  0.63 0.1 0  0.66 0.1 0  0.6899999999999999 0.1 0  0.72 0.1 0  0.75 0.1 0  0.78 0.1 0  0.8100000000000001 0.1 0  0.84 0.1 0  0.87 0.1 0  0.9 0.1 0  0.93 0.1 0  0.96 0.1 0  0.99 0.1 0  1.02 0.1 0  1.05 0.1 0  1.08 0.1 0  1.11 0.1 0  1.14 0.1 0  1.17 0.1 0  1.2 0.1 0  1.23 0.1 0  1.26 0.1 0  1.29 0.1 0  1.32 0.1 0  1.35 0.1 0  1.38 0.1 0  1.41 0.1 0  1.44 0.1 0  1.47 0.1 0  1.5 0.1 0  0 0.12 0  0.03 0.12 0  0.06 0.12 0  0.09 0.12 0  0.12 0.12 0  0.15 0.12 0  0.18 0.12 0  0.21 0.12 0  0.24 0.12 0  0.27 0.12 0  0.3 0.12 0  0.33 0.12 0  0.36 0.12 0  0.39 0.12 0  0.42 0.12 0  0.45 0.12 0  0.48 0.12 0  0.51 0.12 0  0.54 0.12 0  0.57 0.12 0  0.6 0.12 0  0.63 0.12 0  0.66 0.12 0  0.6899999999999999 0.12 0  0.72 0.12 0  0.75 0.12 0  0.78 0.12 0  0.8100000000000001 0.12 0  0.84 0.12 0  0.87 0.12 0  0.9 0.12 0  0.93 0.12 0  0.96 0.12 0  0.99 0.12 0  1.02 0.12 0  1.05 0.12 0  1.08 0.12 0  1.11 0.12 0  1.14 0.12 0  1.17 0.12 0  1.2 0.12 0  1.23 0.12 0  1.26 0.12 0  1.29 0.12 0  1.32 0.12 0  1.35 0.12 0  1.38 0.12 0  1.41 0.12 0  1.44 0.12 0  1.47 0.12 0  1.5 0.12 0  0 0.14 0  0.03 0.14 0  0.06 0.14 0  0.09 0.14 0  0.12 0.14 0  0.15 0.14 0  0.18 0.14 0  0.21 0.14 0  0.24 0.14 0  0.27 0.14 0  0.3 0.14 0  0.33 0.14 0  0.36 0.14 0  0.39 0.14 0  0.42 0.14 0  0.45 0.14 0  0.48 0.14 0  0.51 0.14 0  0.54 0.14 0  0.57 0.14 0  0.6 0.14 0  0.63 0.14 0  0.66 0.14 0  0.6899999999999999 0.14 0  0.72 0.14 0  0.75 0.14 0  0.78 0.14 0  0.8100000000000001 0.14 0  0.84 0.14 0  0.87 0.14 0  0.9 0.14 0  0.93 0.14 0  0.96 0.14 0  0.99 0.14 0  1.02 0.14 0  1.05 0.14 0  1.08 0.14 0  1.11 0.14 0  1.14 0.14 0  1.17 0.14 0  1.2 0.14 0  1.23 0.14 0  1.26 0.14 0  1.29 0.14 0  1.32 0.14 0  1.35 0.14 0  1.38 0.14 0  1.41 0.14 0  1.44 0.14 0  1.47 0.14 0  1.5 0.14 0  0 0.16 0  0.03 0.16 0  0.06 0.16 0  0.09 0.16 0  0.12 0.16 0  0.15 0.16 0  0.18 0.16 0  0.21 0.16 0  0.24 0.16 0  0.27 0.16 0  0.3 0.16 0  0.33 0.16 0  0.36 0.16 0  0.39 0.16 0  0.42 0.16 0  0.45 0.16 0  0.48 0.16 0  0.51 0.16 0  0.54 0.16 0  0.57 0.16 0  0.6 0.16 0  0.63 0.16 0  0.66 0.16 0  0.6899999999999999 0.16 0  0.72 0.16 0  0.75 0.16 0  0.78 0.16 0  0.8100000000000001 0.16 0  0.84 0.16 0  0.87 0.16 0  0.9 0.16 0  0.93 0.16 0  0.96 0.16 0  0.99 0.16 0  1.02 0.16 0  1.05 0.16 0  1.08 0.16 0  1.11 0.16 0  1.14 0.16 0  1.17 0.16 0  1.2 0.16 0  1.23 0.16 0  1.26 0.16 0  1.29 0.16 0  1.32 0.16 0  1.35 0.16 0  1.38 0.16 0  1.41 0.16 0  1.44 0.16 0  1.47 0.16 0  1.5 0.16 0  0 0.18 0  0.03 0.18 0  0.06 0.18 0  0.09 0.18 0  0.12 0.18 0  0.15 0.18 0  0.18 0.18 0  0.21 0.18 0  0.24 0.18 0  0.27 0.18 0  0.3 0.18 0  0.33 0.18 0  0.36 0.18 0  0.39 0.18 0  0.42 0.18 0  0.45 0.18 0  0.48 0.18 0  0.51 0.18 0  0.54 0.18 0  0.57 0.18 0  0.6 0.18 0  0.63 0.18 0  0.66 0.18 0  0.6899999999999999 0.18 0  0.72 0.18 0  0.75 0.18 0  0.78 0.18 0  0.8100000000000001 0.18 0  0.84 0.18 0  0.87 0.18 0  0.9 0.18 0  0.93 0.18 0  0.96 0.18 0  0.99 0.18 0  1.02 0.18 0  1.05 0.18 0  1.08 0.18 0  1.11 0.18 0  1.14 0.18 0  1.17 0.18 0  1.2 0.18 0  1.23 0.18 0  1.26 0.18 0  1.29 0.18 0  1.32 0.18 0  1.35 0.18 0  1.38 0.18 0  1.41 0.18 0  1.44 0.18 0  1.47 0.18 0  1.5 0.18 0  0 0.2 0  0.03 0.2 0  0.06 0.2 0  0.09 0.2 0  0.12 0.2 0  0.15 0.2 0  0.18 0.2 0  0.21 0.2 0  0.24 0.2 0  0.27 0.2 0  0.3 0.2 0  0.33 0.2 0  0.36 0.2 0  0.39 0.2 0  0.42 0.2 0  0.45 0.2 0  0.48 0.2 0  0.51 0.2 0  0.54 0.2 0  0.57 0.2 0  0.6 0.2 0  0.63 0.2 0  0.66 0.2 0  0.6899999999999999 0.2 0  0.72 0.2 0  0.75 0.2 0  0.78 0.2 0  0.8100000000000001 0.2 0  0.84 0.2 0  0.87 0.2 0  0.9 0.2 0  0.93 0.2 0  0.96 0.2 0  0.99 0.2 0  1.02 0.2 0  1.05 0.2 0  1.08 0.2 0  1.11 0.2 0  1.14 0.2 0  1.17 0.2 0  1.2 0.2 0  1.23 0.2 0  1.26 0.2 0  1.29 0.2 0  1.32 0.2 0  1.35 0.2 0  1.38 0.2 0  1.41 0.2 0  1.44 0.2 0  1.47 0.2 0  1.5 0.2 0  0 0.22 0  0.03 0.22 0  0.06 0.22 0  0.09 0.22 0  0.12 0.22 0  0.15 0.22 0  0.18 0.22 0  0.21 0.22 0  0.24 0.22 0  0.27 0.22 0  0.3 0.22 0  0.33 0.22 0  0.36 0.22 0  0.39 0.22 0  0.42 0.22 0  0.45 0.22 0  0.48 0.22 0  0.51 0.22 0  0.54 0.22 0  0.57 0.22 0  0.6 0.22 0  0.63 0.22 0  0.66 0.22 0  0.6899999999999999 0.22 0  0.72 0.22 0  0.75 0.22 0  0.78 0.22 0  0.8100000000000001 0.22 0  0.84 0.22 0  0.87 0.22 0  0.9 0.22 0  0.93 0.22 0  0.96 0.22 0  0.99 0.22 0  1.02 0.22 0  1.05 0.22 0  1.08 0.22 0  1.11 0.22 0  1.14 0.22 0  1.17 0.22 0  1.2 0.22 0  1.23 0.22 0  1.26 0.22 0  1.29 0.22 0  1.32 0.22 0  1.35 0.22 0  1.38 0.22 0  1.41 0.22 0  1.44 0.22 0  1.47 0.22 0  1.5 0.22 0  0 0.24 0  0.03 0.24 0  0.06 0.24 0  0.09 0.24 0  0.12 0.24 0  0.15 0.24 0  0.18 0.24 0  0.21 0.24 0  0.24 0.24 0  0.27 0.24 0  0.3 0.24 0  0.33 0.24 0  0.36 0.24 0  0.39 0.24 0  0.42 0.24 0  0.45 0.24 0  0.48 0.24 0  0.51 0.24 0  0.54 0.24 0  0.57 0.24 0  0.6 0.24 0  0.63 0.24 0  0.66 0.24 0  0.6899999999999999 0.24 0  0.72 0.24 0  0.75 0.24 0  0.78 0.24 0  0.8100000000000001 0.24 0  0.84 0.24 0  0.87 0.24 0  0.9 0.24 0  0.93 0.24 0  0.96 0.24 0  0.99 0.24 0  1.02 0.24 0  1.05 0.24 0  1.08 0.24 0  1.11 0.24 0  1.14 0.24 0  1.17 0.24 0  1.2 0.24 0  1.23 0.24 0  1.26 0.24 0  1.29 0.24 0  1.32 0.24 0  1.35 0.24 0  1.38 0.24 0  1.41 0.24 0  1.44 0.24 0  1.47 0.24 0  1.5 0.24 0  0 0.26 0  0.03 0.26 0  0.06 0.26 0  0.09 0.26 0  0.12 0.26 0  0.15 0.26 0  0.18 0.26 0  0.21 0.26 0  0.24 0.26 0  0.27 0.26 0  0.3 0.26 0  0.33 0.26 0  0.36 0.26 0  0.39 0.26 0  0.42 0.26 0  0.45 0.26 0  0.48 0.26 0  0.51 0.26 0  0.54 0.26 0  0.57 0.26 0  0.6 0.26 0  0.63 0.26 0  0.66 0.26 0  0.6899999999999999 0.26 0  0.72 0.26 0  0.75 0.26 0  0.78 0.26 0  0.8100000000000001 0.26 0  0.84 0.26 0  0.87 0.26 0  0.9 0.26 0  0.93 0.26 0  0.96 0.26 0  0.99 0.26 0  1.02 0.26 0  1.05 0.26 0  1.08 0.26 0  1.11 0.26 0  1.14 0.26 0  1.17 0.26 0  1.2 0.26 0  1.23 0.26 0  1.26 0.26 0  1.29 0.26 0  1.32 0.26 0  1.35 0.26 0  1.38 0.26 0  1.41 0.26 0  1.44 0.26 0  1.47 0.26 0  1.5 0.26 0  0 0.28 0  0.03 0.28 0  0.06 0.28 0  0.09 0.28 0  0.12 0.28 0  0.15 0.28 0  0.18 0.28 0  0.21 0.28 0  0.24 0.28 0  0.27 0.28 0  0.3 0.28 0  0.33 0.28 0  0.36 0.28 0  0.39 0.28 0  0.42 0.28 0  0.45 0.28 0  0.48 0.28 0  0.51 0.28 0  0.54 0.28 0  0.57 0.28 0  0.6 0.28 0  0.63 0.28 0  0.66 0.28 0  0.6899999999999999 0.28 0  0.72 0.28 0  0.75 0.28 0  0.78 0.28 0  0.8100000000000001 0.28 0  0.84 0.28 0  0.87 0.28 0  0.9 0.28 0  0.93 0.28 0  0.96 0.28 0  0.99 0.28 0  1.02 0.28
[...]
<PointData  Scalars="ControlVisualisation"> 
<DataArray  type="Float64"  Name="ControlVisualisation"  format="ascii">2.5186259925405523e-04  1.6808933945877002e-04  1.6871225053843910e-04  1.6999245562354480e-04  1.7196369945847572e-04  1.7441434956150340e-04  1.7700497355297831e-04  1.7941546631670003e-04  1.8143011605219544e-04  1.8295290729820708e-04  1.8397792824862300e-04  1.8455239110471536e-04  1.8475068542285150e-04  1.8465770850225257e-04  1.8435717089577142e-04  1.8392402100074349e-04  1.8342079689416700e-04  1.8289683655988161e-04  1.8238908006113657e-04  1.8192366034733474e-04  1.8151790194639861e-04  1.8118247847834183e-04  1.8092346511795209e-04  1.8074404682093750e-04  1.8064575432478439e-04  1.8062923157717754e-04  1.8069461431931432e-04  1.8084159487242831e-04  1.8106918614455256e-04  1.8137512537977365e-04  1.8175482641823089e-04  1.8219983620755860e-04  1.8269587299723952e-04  1.8322064512307648e-04  1.8374170639312196e-04  1.8421461335718520e-04  1.8458178463815459e-04  1.8477276984759614e-04  1.8470693847843502e-04  1.8429952447240894e-04  1.8347059682291694e-04  1.8215865961349780e-04  1.8034357044297906e-04  1.7808086903904507e-04  1.7553709358184282e-04  1.7298900008114632e-04  1.7077325337195917e-04  1.6918098010668107e-04  1.6829811421184866e-04  1.6795122711559939e-04  5.0361441405499178e-04  1.6799273734249251e-04  8.4148440233181989e-05  8.4754656399948754e-05  8.6102377097401330e-05  8.8320134158697330e-05  9.1266960255345539e-05  9.4598222277372294e-05  9.7903553040508762e-05  1.0083228735129757e-04  1.0316483649180622e-04  1.0481547544004388e-04  1.0579956375299922e-04  1.0619869184231892e-04  1.0613077047369753e-04  1.0572431453630166e-04  1.0509953619207626e-04  1.0435802917785647e-04  1.0357946787615114e-04  1.0282244931780047e-04  1.0212731961278407e-04  1.0151983160547434e-04  1.0101499510667975e-04  1.0062063542757740e-04  1.0034029177822284e-04  1.0017528664306186e-04  1.0012600884633165e-04  1.0019257221900626e-04  1.0037500366546279e-04  1.0067301241358984e-04  1.0108526028333079e-04  1.0160796230628590e-04  1.0223266430221405e-04  1.0294319092883801e-04  1.0371197451540628e-04  1.0449613815933807e-04  1.0523378955308060e-04  1.0584134512057436e-04  1.0621338225774608e-04  1.0622765708725086e-04  1.0575703212349697e-04  1.0468794725148836e-04  1.0294460408589540e-04  1.0052215962439118e-04  9.7523577460753526e-05  9.4191878318260780e-05  9.0889251359364438e-05  8.8011852563954149e-05  8.5889368215184502e-05  8.4646252587370998e-05  8.4112879308124913e-05  1.6793144279615165e-04  1.6818010543158843e-04  8.4339452875569423e-05  8.5126451674897297e-05  8.6844581706628624e-05  8.9614586323800790e-05  9.3240519844959378e-05  9.7319546918031894e-05  1.0136349883553319e-04  1.0494516377913699e-04  1.0779609421741700e-04  1.0980515238259738e-04  1.1098026965813573e-04  1.1141621905201904e-04  1.1126144052004704e-04  1.1068212661319872e-04  1.0983417769713418e-04  1.0884847350843286e-04  1.0782661951935901e-04  1.0684230487766970e-04  1.0594516278727126e-04  1.0516573226677185e-04  1.0452074663451212e-04  1.0401803594299843e-04  1.0366045304142403e-04  1.0344857337452504e-04  1.0338228181093903e-04  1.0346154553955001e-04  1.0368664085605182e-04  1.0405792565679355e-04  1.0457502792454682e-04  1.0523515503655090e-04  1.0603023105174183e-04  1.0694279976762254e-04  1.0794104343219454e-04  1.0897344335606439e-04  1.0996362469902105e-04  1.1080642531855900e-04  1.1136702641390758e-04  1.1148769893732692e-04  1.1100381337169853e-04  1.0977319528049816e-04  1.0770330825737637e-04  1.0478928984201606e-04  1.0114750736582919e-04  9.7070473544533559e-05  9.3008460249744215e-05  8.9415648609895960e-05  8.6678756156133421e-05  8.5019551141286560e-05  8.4295902492493950e-05  1.6806676547274796e-04  1.6836255026892041e-04  8.4613980793975263e-05  8.5714103354821080e-05  8.7867189660152564e-05  9.1025955597070864e-05  9.4905669743483966e-05  9.9115300710538625e-05  1.0315156490536928e-04  1.0660887122096442e-04  1.0928532645087268e-04  1.1111150937727118e-04  1.1210437651587669e-04  1.1236213797890968e-04  1.1204067117873948e-04  1.1131296161296453e-04  1.1033774084062630e-04  1.0924584138981800e-04  1.0813777454127035e-04  1.0708574108100039e-04  1.0613735067487543e-04  1.0532050625212917e-04  1.0464903072748095e-04  1.0412811302658241e-04  1.0375862422846036e-04  1.0353990190940626e-04  1.0347120662210883e-04  1.0355233133880347e-04  1.0378377181854722e-04  1.0416659445762938e-04  1.0470180993784176e-04  1.0538879783408999e-04  1.0622230336611490e-04  1.0718789196306408e-04  1.0825648935283081e-04  1.0937878075201279e-04  1.1048022863493626e-04  1.1145676066836578e-04  1.1217227621583918e-04  1.1246413961661902e-04  1.1216141993443366e-04  1.1112689856869485e-04  1.0925620360965421e-04  1.0652079481170346e-04  1.0298828528132878e-04  9.8886772099139237e-05  9.4689433725965897e-05  9.0827313369098265e-05  8.7648591529005044e-05  8.5516586269348565e-05  8.4514198040335878e-05  1.6825697082063269e-04  1.6832954084904686e-04  8.4954627913736889e-05  8.6898009284459290e-05  8.9995043438124498e-05  9.3665104234076657e-05  9.7696967870456667e-05  1.0192232817054571e-04  1.0573900756452912e-04  1.0882371798921447e-04  1.1112487550696958e-04  1.1261488939651077e-04  1.1329815500206400e-04  1.1326965811851574e-04  1.1269590183745305e-04  1.1175707916439918e-04  1.1061084561677822e-04  1.0938328342387960e-04  1.0817030141986693e-04  1.0704021744958605e-04  1.0603659668494550e-04  1.0518262629162416e-04  1.0448719864479924e-04  1.0395124896211532e-04  1.0357264967738524e-04  1.0334900580609588e-04  1.0327877397656316e-04  1.0336152761572679e-04  1.0359800873074998e-04  1.0399017469644028e-04  1.0454095417586030e-04  1.0525298632675841e-04  1.0612549849806544e-04  1.0714903776217837e-04  1.0829913439856353e-04  1.0953077308897735e-04  1.1077422696833107e-04  1.1192925725333607e-04  1.1286229507011689e-04  1.1340789730429202e-04  1.1339427330955789e-04  1.1268128412812981e-04  1.1116064529208776e-04  1.0881074383934389e-04  1.0568635459471969e-04  1.0173497615526594e-04  9.7529409374453642e-05  9.3572569443153849e-05  8.9790274125921756e-05  8.6582485071323581e-05  8.4699082897160446e-05  1.6832777298141874e-04  1.6837408013924119e-04  8.5873730282078363e-05  9.1707020549382909e-05  9.9812976568859429e-05  1.0377648704488132e-04  1.0542902655146210e-04  1.0752811061553067e-04  1.0985204156623660e-04  1.1195331181490436e-04  1.1361242161522862e-04  1.1462764585439750e-04  1.1488046157716265e-04  1.1445107663856197e-04  1.1352950947589970e-04  1.1230674272619579e-04  1.1093437347361364e-04  1.0952879907498354e-04  1.0817893978654683e-04  1.0694821977639429e-04  1.0587499519391829e-04  1.0497575362427613e-04  1.0425211674216519e-04  1.0369887797675747e-04  1.0330985035945201e-04  1.0308052786361363e-04  1.0300851487113955e-04  1.0309316621695980e-04  1.0333542808327133e-04  1.0373819311865810e-04  1.0430675355844281e-04  1.0504821075381411e-04  1.0596830110231132e-04  1.0706489316540695e-04  1.0831974942403034e-04  1.0969378161932241e-04  1.1112284275512010e-04  1.1251382628210010e-04  1.1374644282055998e-04  1.1464349371260741e-04  1.1502124405845774e-04  1.1470181539009790e-04  1.1386462905205755e-04  1.1238006787094268e-04  1.1079780872772764e-04  1.0884803948770628e-04  1.0736180514672298e-04  1.0516099409282434e-04  9.7489583572058950e-05  8.9309617547082612e-05  8.4990152741423267e-05  1.6818461216940232e-04  1.7434484973709313e-04  9.2868654875909190e-05  1.2725350634610469e-04  2.2268043124858803e-04  2.8841768359074414e-04  2.0442942360751612e-04  1.4693907043673168e-04  1.2352165998690871e-04  1.1737831420224190e-04  1.1703010269046411e-04  1.1725784890493131e-04  1.1691395235172717e-04  1.1593651706369683e-04  1.1455525077126296e-04  1.1297184404696058e-04  1.1131730509408669e-04  1.0969023420895147e-04  1.0817030667193896e-04  1.0681604402221334e-04  1.0565993233932891e-04  1.0470922363098736e-04  1.0395497006886604e-04  1.0338336930551887e-04  1.0298310672301886e-04  1.0274746707330363e-04  1.0267342152075767e-04  1.0276019770881289e-04  1.0300877350308342e-04  1.0342272607618012e-04  1.0400988348093888e-04  1.0478311719206750e-04  1.0575741424090038e-04  1.0694141953560345e-04  1.0832459015329697e-04  1.0987429691071876e-04  1.1153227891537607e-04  1.1322725704347000e-04  1.1484972604281187e-04  1.1619126755410544e-04  1.1712519804477127e-04  1.1747717965781909e-04  1.1834828416025461e-04  1.2032798404733197e-04  1.2957867048108671e-04  1.4963147118539596e-04  1.9533489092152755e-04  2.8459058145006457e-04  2.3455703156995459e-04  1.3491110559402244e-04  9.1217119757146912e-05  1.6888662933853615e-04  1.8949230762467449e-04  2.0586555898698992e-04  2.9903079830746863e-02  5.7461699184063665e-02  5.3476735199148279e-02  3.3817153162394246e-02  1.1146367902147958e-02  4.0009357226099382e-04  1.5532903648919099e-04  1.2565288565477112e-04  1.2111654673875247e-04  1.1953730063704169e-04  1.1774269766062264e-04  1.1576334018179946e-04  1.1374266751027378e-04  1.1175122594611989e-04  1.0985838930276352e-04  1.0813373767494756e-04  1.0663293122140820e-04  1.0538308124473731e-04  1.0437849136814796e-04  1.0359451205601673e-04  1.0300542909704045e-04  1.0259390282159164e-04  1.0235147897905946e-04  1.0227517212682945e-04  1.0236432075162206e-04  1.0261955812497325e-04  1.0304436732557288e-04  1.0364873418550397e-04  1.0445261032713053e-04  1.0548396740856692e-04  1.0676782767761380e-04  1.0830296934776275e-04  1.1006176176462461e-04  1.1199724735706095e-04  1.1406267920627471e-04  1.1613697378816324e-04  1.1820569304423707e-04  1.2015614206803158e-04  1.2239561576919155e-04  1.3276706863844169e-04  1.6135472453300686e-04  3.2088394143472043e-04  8.4455767010364995e-03  2.9656017725006100e-02  5.0501465022454201e-02  5.7902354268413968e-02  4.1571810044575337e-02  2.1179018288896342e-04  1.8833363523039257e-04  4.1363273486535941e-04  9.0024694904894093e-02  2.1017423941087429e-01  2.1455436033458544e-01  1.8082326647952376e-01  1.3320521408994107e-01  8.2815734625233506e-02  3.8400453217545406e-02  6.4094614096049897e-03  2.1814295957277505e-04  1.3634921376311595e-04  1.2383083988809493e-04  1.1998115855751137e-04  1.1714137871455105e-04  1.1461125566657921e-04  1.1222828371665955e-04  1.1002346256802269e-04  1.0805576256969808e-04  1.0638382688042141e-04  1.0503286456425057e-04  1.0397778819970648e-04  1.0316957285908352e-04  1.0256611708959015e-04  1.0214380403559466e-04  1.0189398342001253e-04  1.0181510245189430e-04  1.0190706015403834e-04  1.0216948498203261e-04  1.0260412479544356e-04  1.0322172895468129e-04  1.0405001983810602e-04  1.0513527607065711e-04  1.0652950335167505e-04  1.0824589610938612e-04  1.1024517217961656e-04  1.1251021431631541e-04  1.1497831339770449e-04  1.1775474865208481e-04  1.2128607154086600e-04  1.2672592217923123e-04  1.4297057396809288e-04  2.1647155336998819e-04  3.3415639758539138e-03  3.1665416893336566e-02  7.6766166201886893e-02  1.2888440682820337e-01  1.7599572450974954e-01  2.0878204488534208e-01  2.0808563749726064e-01  1.1435543469374884e-01  3.0533841212857210e-04  4.0271431642491134e-01  4.6462606197119144e-01  4.9594321126553159e-01  4.2341207134129971e-01  3.5532229035963098e-01  2.7539605040569298e-01  1.9441051573539170e-01  1.2047536991072616e-01  6.0602591506999183e-02  1.7645536868040535e-02  3.8426966284184924e-04  1.4977635265164165e-04  1.2448067327350910e-04  1.1890465546304595e-04  1.1561673262835104e-04  1.1275019257316576e-04  1.1018043942317439e-04  1.0792217148016915e-04  1.0604858871433725e-04  1.0459456746322307e-04  1.0350165836851739e-04  1.0268093611947175e-04  1.0206834462620606e-04  1.0163545083256382e-04  1.0137683914360437e-04  1.0129478375780399e-04  1.0139047931663859e-04  1.0166157229875694e-04  1.0210516036504234e-04  1.0272940039362903e-04  1.0356876307054407e-04  1.0469639897673545e-04  1.0620706842180955e-04  1.0814922754341390e-04  1.1040567015907782e-04  1.1311818641241258e-04  1.1611255579288588e-04  1.2044933276992845e-04  1.3040026007061562e-04  1.5647988537005324e-04  3.1648032771067111e-04  1.2894852445292012e-02  5.4290394582033275e-02  1.1687714619749737e-01  1.9045709110175399e-01  2.7118989147766515e-01  3.5135912979654454e-01  4.1801088380827445e-01  4.4876764479241343e-01  4.7032796313830483e-01  3.5722375432068221e-01  9.9898901559282305e-01  9.8522144939954792e-01  7.8747333864631219e-01  6.6345340182633628e-01  5.5714161583228661e-01  4.4364624419347509e-01  3.3606574961282731e-01  2.3561146323819010e-01  1.4768602648128162e-01  7.7601568036810578e-02  2.8210193701649254e-02  1.3665579988693887e-03  1.6792987096111788e-04  1.2549975474104161e-04  1.1741424069700754e-04  1.1342139750060281e-04  1.1036556057962127e-04  1.0773073022472105e-04  1.0560299587438209e-04  1.0405304596876730e-04  1.0294927403632734e-04  1.0213520670011842e-04  1.0151962555193698e-04  1.0107437244794469e-04  1.0080376641843370e-04  1.0071745289556581e-04  1.0081878701315406e-04  1.0110227952623821e-04  1.0155599516922071e-04  1.0217852850873115e-04  1.0300788105934939e-04  1.0415425927936331e-04  1.0577443686078949e-04  1.0806393294222585e-04  1.1064759761257356e-04  1.1415124586081956e-04  1.1886808430338585e-04  1.3336565276075464e-04  1.7578948461859057e-04  6.4377283690240017e-04  2.2379419927952237e-02  7.2599611208120751e-02  1.4468286945058131e-01  2.3190092140347940e-01  3.3240382571719101e-01  4.4201761059000272e-01  5.4445564141285119e-01  6.5594670688315737e-01  8.0596595492230150e-01  9.9438539457525976e-01  9.9722751636107831e-01  9.9979309460628452e-01  9.9981979019145839e-01  9.9936491129819338e-01  9.0607330182481816e-01  7.4459193505649912e-01  6.1561666008274274e-01  4.8920919675620206e-01  3.6968956636359501e-01  2.6070485278503591e-01  1.6684121268691968e-01  9.2215097453919301e-02  3.9313607853026733e-02  6.3280605353443374e-03  2.1791760444034520e-04  1.3250801171731143e-04  1.1635414231507454e-04  1.1122010473311131e-04  1.0769641487942749e-04  1.0511629877904339e-04  1.0346058732848763e-04  1.0237343205982190e-04  1.0158147079292078e-04  1.0096128244462467e-04  1.0049404768471267e-04  1.0020384354189319e-04  1.0011129384769371e-04  1.0022240357432685e-04  1.0052928928946958e-04  1.0100658296100751e-04  1.0163128824652547e-04  1.0244317202291885e-04  1.0359642054141007e-04  1.0536485393612432e-04  1.0840471389352566e-04  1.1204427663138544e-04  1.2023440064052652e-04  1.3976170224914649e-04  2.1367212567305750e-04  3.5926466569265805e-03  3.3643789110540202e-02  8.8442856511632598e-02  1.6409451460374985e-01  2.5793878385181801e-01  3.6721807025048042e-01  4.8870656391326789e-01  6.1003264685416159e-01  7.4144618059014011e-01  9.3919272428857792e-01  9.9957599757586357e-01  9.9983923738850278e-01  9.9971771637973306e-01  9.9986312982317394e-01  9.9990890009265321e-01  9.9981777531002325e-01  9.9930525547033466e-01  9.1100492611187134e-01  7.6762829510390918e-01  6.3666125988826427e-01  5.0880370513721129e-01  3.8751738439988592e-01  2.7738093135019587e-01  1.8308955572763902e-01  1.0769684844847947e-01  5.2916206412695899e-02  1.6951313664310109e-02  5.4056416419442758e-04  1.6965530555748310e-04  1.2600617503045474e-04  1.1242120765461347e-04  1.0687124462619128e-04  1.0422338137239645e-04  1.0272709152704187e-04  1.0172268711628889e-04  1.0095830370174858e-04  1.0038719848953159e-04  1.0003926797703131e-04  9.9934054549770580e-05  1.0007661951248356e-04  1.0046803955980880e-04  1.0108547551995906e-04  1.0190616124970083e-04  1.0304296235358221e-04  1.0483016126296197e-04  1.0813153668960516e-04  1.1646889663381481e-04  1.3145278080345759e-04  1.6800124751774876e-04  4.2341706569106618e-04  1.2430446113823962e-02  4.8195994052628886e-02  1.0532688341518583e-01  1.8053867127166551e-01  2.7525526352970386e-01  3.8607302885028277e-01  5.0881968140200440e-01  6.3645589199343078e-01  7.6495056610094281e-01  9.3843274854016945e-01  9.9945600642103871e-01  9.9982312132988982e-01  9.9990875737419582e-01  9.9985233863406553e-01  9.9985514033859646e-01  9.9991575426945867e-01  9.9986053133254793e-01  9.9968316528035006e-01  9.9804349923585489e-01  8.8366411099239428e-01  7.6323366498966050e-01  6.3890520007129359e-01  5.1599002093026736e-01  3.9879920810863079e-01  2.9260756455511688e-01  2.0181027272837676e-01  1.2875813885099530e-01  7.4249097922246626e-02  3.6831154474793126e-02  1.2335412801054943e-02  7.5087508430753342e-04  2.2191492203206282e-04  1.5564550217654849e-04  1.3457451214000956e-04  1.2445673423580969e-04  1.1872970680944538e-04  1.1520162094330675e-04  1.1308310834885151e-04  1.1200932969706123e-04  1.1174951965429178e-04  1.1223478373948535e-04  1.1355812795981727e-04  1.1586235451398189e-04  1.1939306284685298e-04  1.2506180481556674e-04  1.3491200752147452e-04  1.5490801879544308e-04  2.1463875041772946e-04  6.1934072745895464e-04  9.4195275918090970e-03  3.2088463829161508e-02  7.1283865628707949e-02  1.2698941984137407e-01  1.9982744923021506e-01  2.9105367131810428e-01  3.9825939566749696e-01  5.1636824582380181e-01  6.4083375245974905e-01  7.6272506509003446e-01  8.9727031081129949e-01  9.9857332660670162e-01  9.9968094974456034e-01  9.9985559440193228e-01  9.9991363762175056e-01  9.9986382898419812e-01  9.9973634268663991e-01  9.9987388008850298e-01  9.9981659370576415e-01  9.9967070520039447e-01  9.9904400407653604e-01  9.6019509673643133e-01  8.5563106346732321e-01  7.4871331433653487e-01  6.3479422834595300e-01  5.2043201912043535e-01  4.1153219298652138e-01  3.1330744551836087e-01  2.2956261867428140e-01  1.6206079811543564e-01  1.1044193035945440e-01  7.3170336314186971e-02  4.7480446031776515e-02  2.9422877416219486e-02  1.7166301161096832e-02  1.0098678677176447e-02  5.5792788553713736e-03  2.9704523384768960e-03  1.6689936531971751e-03  1.1159080745389352e-03  9.0602023507037690e-04  8.4912263469142648e-04  8.9628547634063960e-04  1.0873889939460248e-03  1.5919794455070998e-03  2.7758657766126103e-03  5.2249001972799278e-03  9.3752758390389553e-03  1.5867252870312040e-02  2.6433119318024004e-02  4.4051866552173448e-02  7.1280509551808521e-02  1.0932576932477567e-01  1.6079195539183019e-01  2.2824107103235300e-01  3.1259626436446108e-01  4.1165920890821245e-01  5.2142024721054070e-01  6.3680675941645992e-01  7.5170171984256173e-01  8.5993683624173800e-01  9.6865039437598455e-01  9.9900024406664156e-01  9.9963663477023190e-01  9.9980078738423928e-01  9.9986569051406937e-01  9.9980114788519026e-01  9.9735544323740555e-01  9.9943713097249609e-01  9.9940360901905057e-01  9.9918280132726878e-01  9.9828152394999214e-01  9.7797575884353205e-01  9.0861318221620635e-01  8.2955244340501966e-01  7.3443391831035842e-01  6.3249050142634999e-01  5.3007793367987477e-01  4.3342286608700148e-01  3.4726945972443896e-01  2.7451955427917341e-01  2.1611147339820763e-01  1.7113896459276526e-01  1.3756753390391716e-01  1.1336789319941160e-01  9.6571472325631916e-02  8.4888045966734979e-02  7.6582666678846431e-02  7.0892264376968467e-02  6.7062000553179762e-02  6.4584765121634358e-02  6.3156350349923784e-02  6.2644979133576195e-02  6.2984395769170143e-02  6.4238719794995652e-02  6.6600273635416818e-02  7.0347712240577120e-02  7.5973837487948628e-02  8.4203483351341576e-02  9.6099230108159753e-02  1.1327789209171527e-01  1.3752023121319493e-01  1.7063691173578510e-01  2.1533643489149512e-01  2.7412972485958181e-01  3.4747941630558060e-01  4.3425420304307710e-01  5.3156784460448370e-01  6.3485230065974041e-01  7.3786067950238998e-01  8.3364356741389423e-01  9.1629009286392615e-01  9.7814504607891828e-01  9.9791044828717446e-01  9.9907309825847335e-01  9.9940269485862310e-01  9.9951173389010106e-01  9.9921225619870402e-01  3.3944660297970419e-01  6.4729532763274666e-01  8.0564387490208866e-01  9.0084061772389323e-01  9.4056433021753882e-01  9.4401689895491681e-01  9.2193752615526459e-01  8.7588212378336872e-01  8.0782625834996469e-01  7.2665784583492921e-01  6.3932519753883621e-01  5.5290920865823134e-01  4.730381769