<?xml version="1.0"?>
<VTKFile type="UnstructuredGrid"  version="0.1"  >
<UnstructuredGrid>
<Piece  NumberOfPoints="2601" NumberOfCells="5000">
<Points>
<DataArray  type="Float64"  NumberOfComponents="3"  format="ascii">0 0 0  0.03 0 0  0.06 0 0  0.09 0 0  0.12 0 0  0.15 0 0  0.18 0 0  0.21 0 0  0.24 0 0  0.27 0 0  0.3 0 0  0.33 0 0  0.36 0 0  0.39 0 0  0.42 0 0  0.45 0 0  0.48 0 0  0.51 0 0  0.54 0 0  0.57 0 0  0.6 0 0  0.63 0 0  0.66 0 0  0.6899999999999999 0 0  0.72 0 0  0.75 0 0  0.78 0 0  0.8100000000000001 0 0  0.84 0 0  0.87 0 0  0.9 0 0  0.93 0 0  0.96 0 0  0.99 0 0  1.02 0 0  1.05 0 0  1.08 0 0  1.11 0 0  1.14 0 0  1.17 0 0  1.2 0 0  1.23 0 0  1.26 0 0  1.29 0 0  1.32 0 0  1.35 0 0  1.38 0 0  1.41 0 0  1.44 0 0  1.47 0 0  1.5 0 0  0 0.02 0  0.03 0.02 0  0.06 0.02 0  0.09 0.02 0  0.12 0.02 0  0.15 0.02 0  0.18 0.02 0  0.21 0.02 0  0.24 0.02 0  0.27 0.02 0  0.3 0.02 0  0.33 0.02 0  0.36 0.02 0  0.39 0.02 0  0.42 0.02 0  0.45 0.02 0  0.48 0.02 0  0.51 0.02 0  0.54 0.02 0  0.57 0.02 0  0.6 0.02 0  0.63 0.02 0  0.66 0.02 0  0.6899999999999999 0.02 0  0.72 0.02 0  0.75 0.02 0  0.78 0.02 0  0.8100000000000001 0.02 0  0.84 0.02 0  0.87 0.02 0  0.9 0.02 0  0.93 0.02 0  0.96 0.02 0  0.99 0.02 0  1.02 0.02 0  1.05 0.02 0  1.08 0.02 0  1.11 0.02 0  1.14 0.02 0  1.17 0.02 0  1.2 0.02 0  1.23 0.02 0  1.26 0.02 0  1.29 0.02 0  1.32 0.02 0  1.35 0.02 0  1.38 0.02 0  1.41 0.02 0  1.44 0.02 0  1.47 0.02 0  1.5 0.02 0  0 0.04 0  0.03 0.04 0  0.06 0.04 0  0.09 0.04 0  0.12 0.04 0  0.15 0.04 0  0.18 0.04 0  0.21 0.04 0  0.24 0.04 0  0.27 0.04 0  0.3 0.04 0  0.33 0.04 0  0.36 0.04 0  0.39 0.04 0  0.42 0.04 0  0.45 0.04 0  0.48 0.04 0  0.51 0.04 0  0.54 0.04 0  0.57 0.04 0  0.6 0.04 0  0.63 0.04 0  0.66 0.04 0  0.6899999999999999 0.04 0  0.72 0.04 0  0.75 0.04 0  0.78 0.04 0  0.8100000000000001 0.04 0  0.84 0.04 0  0.87 0.04 0  0.9 0.04 0  0.93 0.04 0  0.96 0.04 0  0.99 0.04 0  1.02 0.04 0  1.05 0.04 0  1.08 0.04 0  1.11 0.04 0  1.14 0.04 0  1.17 0.04 0  1.2 0.04 0  1.23 0.04 0  1.26 0.04 0  1.29 0.04 0  1.32 0.04 0  1.35 0.04 0  1.38 0.04 0  1.41 0.04 0  1.44 0.04 0  1.47 0.04 0  1.5 0.04 0  0 0.06 0  0.03 0.06 0  0.06 0.06 0  0.09 0.06 0  0.12 0.06 0  0.15 0.06 0  0.18 0.06 0  0.21 0.06 0  0.24 0.06 0  0.27 0.06 0  0.3 0.06 0  0.33 0.06 0  0.36 0.06 0  0.39 0.06 0  0.42 0.06 0  0.45 0.06 0  0.48 0.06 0  0.51 0.06 0  0.54 0.06 0  0.57 0.06 0  0.6 0.06 0  0.63 0.06 0  0.66 0.06 0  0.6899999999999999 0.06 0  0.72 0.06 0  0.75 0.06 0  0.78 0.06 0  0.8100000000000001 0.06 0  0.84 0.06 0  0.87 0.06 0  0.9 0.06 0  0.93 0.06 0  0.96 0.06 0  0.99 0.06 0  1.02 0.06 0  1.05 0.06 0  1.08 0.06 0  1.11 0.06 0  1.14 0.06 0  1.17 0.06 0  1.2 0.06 0  1.23 0.06 0  1.26 0.06 0  1.29 0.06 0  1.32 0.06 0  1.35 0.06 0  1.38 0.06 0  1.41 0.06 0  1.44 0.06 0  1.47 0.06 0  1.5 0.06 0  0 0.08 0  0.03 0.08 0  0.06 0.08 0  0.09 0.08 0  0.12 0.08 0  0.15 0.08 0  0.18 0.08 0  0.21 0.08 0  0.24 0.08 0  0.27 0.08 0  0.3 0.08 0  0.33 0.08 0  0.36 0.08 0  0.39 0.08 0  0.42 0.08 0  0.45 0.08 0  0.48 0.08 0  0.51 0.08 0  0.54 0.08 0  0.57 0.08 0  0.6 0.08 0  0.63 0.08 0  0.66 0.08 0  0.6899999999999999 0.08 0  0.72 0.08 0  0.75 0.08 0  0.78 0.08 0  0.8100000000000001 0.08 0  0.84 0.08 0  0.87 0.08 0  0.9 0.08 0  0.93 0.08 0  0.96 0.08 0  0.99 0.08 0  1.02 0.08 0  1.05 0.08 0  1.08 0.08 0  1.11 0.08 0  1.14 0.08 0  1.17 0.08 0  1.2 0.08 0  1.23 0.08 0  1.26 0.08 0  1.29 0.08 0  1.32 0.08 0  1.35 0.08 0  1.38 0.08 0  1.41 0.08 0  1.44 0.08 0  1.47 0.08 0  1.5 0.08 0  0 0.1 0  0.03 0.1 0  0.06 0.1 0  0.09 0.1 0  0.12 0.1 0  0.15 0.1 0  0.18 0.1 0  0.21 0.1 0  0.24 0.1 0  0.27 0.1 0  0.3 0.1 0  0.33 0.1 0  0.36 0.1 0  0.39 0.1 0  0.42 0.1 0  0.45 0.1 0  0.48 0.1 0  0.51 0.1 0  0.54 0.1 0  0.57 0.1 0  0.6 0.1 0  0.63 0.1 0  0.66 0.1 0  0.6899999999999999 0.1 0  0.72 0.1 0  0.75 0.1 0  0.78 0.1 0  0.8100000000000001 0.1 0  0.84 0.1 0  0.87 0.1 0  0.9 0.1 0  0.93 0.1 0  0.96 0.1 0  0.99 0.1 0  1.02 0.1 0  1.05 0.1 0  1.08 0.1 0  1.11 0.1 0  1.14 0.1 0  1.17 0.1 0  1.2 0.1 0  1.23 0.1 0  1.26 0.1 0  1.29 0.1 0  1.32 0.1 0  1.35 0.1 0  1.38 0.1 0  1.41 0.1 0  1.44 0.1 0  1.47 0.1 0  1.5 0.1 0  0 0.12 0  0.03 0.12 0  0.06 0.12 0  0.09 0.12 0  0.12 0.12 0  0.15 0.12 0  0.18 0.12 0  0.21 0.12 0  0.24 0.12 0  0.27 0.12 0  0.3 0.12 0  0.33 0.12 0  0.36 0.12 0  0.39 0.12 0  0.42 0.12 0  0.45 0.12 0  0.48 0.12 0  0.51 0.12 0  0.54 0.12 0  0.57 0.12 0  0.6 0.12 0  0.63 0.12 0  0.66 0.12 0  0.6899999999999999 0.12 0  0.72 0.12 0  0.75 0.12 0  0.78 0.12 0  0.8100000000000001 0.12 0  0.84 0.12 0  0.87 0.12 0  0.9 0.12 0  0.93 0.12 0  0.96 0.12 0  0.99 0.12 0  1.02 0.12 0  1.05 0.12 0  1.08 0.12 0  1.11 0.12 0  1.14 0.12 0  1.17 0.12 0  1.2 0.12 0  1.23 0.12 0  1.26 0.12 0  1.29 0.12 0  1.32 0.12 0  1.35 0.12 0  1.38 0.12 0  1.41 0.12 0  1.44 0.12 0  1.47 0.12 0  1.5 0.12 0  0 0.14 0  0.03 0.14 0  0.06 0.14 0  0.09 0.14 0  0.12 0.14 0  0.15 0.14 0  0.18 0.14 0  0.21 0.14 0  0.24 0.14 0  0.27 0.14 0  0.3 0.14 0  0.33 0.14 0  0.36 0.14 0  0.39 0.14 0  0.42 0.14 0  0.45 0.14 0  0.48 0.14 0  0.51 0.14 0  0.54 0.14 0  0.57 0.14 0  0.6 0.14 0  0.63 0.14 0  0.66 0.14 0  0.6899999999999999 0.14 0  0.72 0.14 0  0.75 0.14 0  0.78 0.14 0  0.8100000000000001 0.14 0  0.84 0.14 0  0.87 0.14 0  0.9 0.14 0  0.93 0.14 0  0.96 0.14 0  0.99 0.14 0  1.02 0.14 0  1.05 0.14 0  1.08 0.14 0  1.11 0.14 0  1.14 0.14 0  1.17 0.14 0  1.2 0.14 0  1.23 0.14 0  1.26 0.14 0  1.29 0.14 0  1.32 0.14 0  1.35 0.14 0  1.38 0.14 0  1.41 0.14 0  1.44 0.14 0  1.47 0.14 0  1.5 0.14 0  0 0.16 0  0.03 0.16 0  0.06 0.16 0  0.09 0.16 0  0.12 0.16 0  0.15 0.16 0  0.18 0.16 0  0.21 0.16 0  0.24 0.16 0  0.27 0.16 0  0.3 0.16 0  0.33 0.16 0  0.36 0.16 0  0.39 0.16 0  0.42 0.16 0  0.45 0.16 0  0.48 0.16 0  0.51 0.16 0  0.54 0.16 0  0.57 0.16 0  0.6 0.16 0  0.63 0.16 0  0.66 0.16 0  0.6899999999999999 0.16 0  0.72 0.16 0  0.75 0.16 0  0.78 0.16 0  0.8100000000000001 0.16 0  0.84 0.16 0  0.87 0.16 0  0.9 0.16 0  0.93 0.16 0  0.96 0.16 0  0.99 0.16 0  1.02 0.16 0  1.05 0.16 0  1.08 0.16 0  1.11 0.16 0  1.14 0.16 0  1.17 0.16 0  1.2 0.16 0  1.23 0.16 0  1.26 0.16 0  1.29 0.16 0  1.32 0.16 0  1.35 0.16 0  1.38 0.16 0  1.41 0.16 0  1.44 0.16 0  1.47 0.16 0  1.5 0.16 0  0 0.18 0  0.03 0.18 0  0.06 0.18 0  0.09 0.18 0  0.12 0.18 0  0.15 0.18 0  0.18 0.18 0  0.21 0.18 0  0.24 0.18 0  0.27 0.18 0  0.3 0.18 0  0.33 0.18 0  0.36 0.18 0  0.39 0.18 0  0.42 0.18 0  0.45 0.18 0  0.48 0.18 0  0.51 0.18 0  0.54 0.18 0  0.57 0.18 0  0.6 0.18 0  0.63 0.18 0  0.66 0.18 0  0.6899999999999999 0.18 0  0.72 0.18 0  0.75 0.18 0  0.78 0.18 0  0.8100000000000001 0.18 0  0.84 0.18 0  0.87 0.18 0  0.9 0.18 0  0.93 0.18 0  0.96 0.18 0  0.99 0.18 0  1.02 0.18 0  1.05 0.18 0  1.08 0.18 0  1.11 0.18 0  1.14 0.18 0  1.17 0.18 0  1.2 0.18 0  1.23 0.18 0  1.26 0.18 0  1.29 0.18 0  1.32 0.18 0  1.35 0.18 0  1.38 0.18 0  1.41 0.18 0  1.44 0.18 0  1.47 0.18 0  1.5 0.18 0  0 0.2 0  0.03 0.2 0  0.06 0.2 0  0.09 0.2 0  0.12 0.2 0  0.15 0.2 0  0.18 0.2 0  0.21 0.2 0  0.24 0.2 0  0.27 0.2 0  0.3 0.2 0  0.33 0.2 0  0.36 0.2 0  0.39 0.2 0  0.42 0.2 0  0.45 0.2 0  0.48 0.2 0  0.51 0.2 0  0.54 0.2 0  0.57 0.2 0  0.6 0.2 0  0.63 0.2 0  0.66 0.2 0  0.6899999999999999 0.2 0  0.72 0.2 0  0.75 0.2 0  0.78 0.2 0  0.8100000000000001 0.2 0  0.84 0.2 0  0.87 0.2 0  0.9 0.2 0  0.93 0.2 0  0.96 0.2 0  0.99 0.2 0  1.02 0.2 0  1.05 0.2 0  1.08 0.2 0  1.11 0.2 0  1.14 0.2 0  1.17 0.2 0  1.2 0.2 0  1.23 0.2 0  1.26 0.2 0  1.29 0.2 0  1.32 0.2 0  1.35 0.2 0  1.38 0.2 0  1.41 0.2 0  1.44 0.2 0  1.47 0.2 0  1.5 0.2 0  0 0.22 0  0.03 0.22 0  0.06 0.22 0  0.09 0.22 0  0.12 0.22 0  0.15 0.22 0  0.18 0.22 0  0.21 0.22 0  0.24 0.22 0  0.27 0.22 0  0.3 0.22 0  0.33 0.22 0  0.36 0.22 0  0.39 0.22 0  0.42 0.22 0  0.45 0.22 0  0.48 0.22 0  0.51 0.22 0  0.54 0.22 0  0.57 0.22 0  0.6 0.22 0  0.63 0.22 0  0.66 0.22 0  0.6899999999999999 0.22 0  0.72 0.22 0  0.75 0.22 0  0.78 0.22 0  0.8100000000000001 0.22 0  0.84 0.22 0  0.87 0.22 0  0.9 0.22 0  0.93 0.22 0  0.96 0.22 0  0.99 0.22 0  1.02 0.22 0  1.05 0.22 0  1.08 0.22 0  1.11 0.22 0  1.14 0.22 0  1.17 0.22 0  1.2 0.22 0  1.23 0.22 0  1.26 0.22 0  1.29 0.22 0  1.32 0.22 0  1.35 0.22 0  1.38 0.22 0  1.41 0.22 0  1.44 0.22 0  1.47 0.22 0  1.5 0.22 0  0 0.24 0  0.03 0.24 0  0.06 0.24 0  0.09 0.24 0  0.12 0.24 0  0.15 0.24 0  0.18 0.24 0  0.21 0.24 0  0.24 0.24 0  0.27 0.24 0  0.3 0.24 0  0.33 0.24 0  0.36 0.24 0  0.39 0.24 0  0.42 0.24 0  0.45 0.24 0  0.48 0.24 0  0.51 0.24 0  0.54 0.24 0  0.57 0.24 0  0.6 0.24 0  0.63 0.24 0  0.66 0.24 0  0.6899999999999999 0.24 0  0.72 0.24 0  0.75 0.24 0  0.78 0.24 0  0.8100000000000001 0.24 0  0.84 0.24 0  0.87 0.24 0  0.9 0.24 0  0.93 0.24 0  0.96 0.24 0  0.99 0.24 0  1.02 0.24 0  1.05 0.24 0  1.08 0.24 0  1.11 0.24 0  1.14 0.24 0  1.17 0.24 0  1.2 0.24 0  1.23 0.24 0  1.26 0.24 0  1.29 0.24 0  1.32 0.24 0  1.35 0.24 0  1.38 0.24 0  1.41 0.24 0  1.44 0.24 0  1.47 0.24 0  1.5 0.24 0  0 0.26 0  0.03 0.26 0  0.06 0.26 0  0.09 0.26 0  0.12 0.26 0  0.15 0.26 0  0.18 0.26 0  0.21 0.26 0  0.24 0.26 0  0.27 0.26 0  0.3 0.26 0  0.33 0.26 0  0.36 0.26 0  0.39 0.26 0  0.42 0.26 0  0.45 0.26 0  0.48 0.26 0  0.51 0.26 0  0.54 0.26 0  0.57 0.26 0  0.6 0.26 0  0.63 0.26 0  0.66 0.26 0  0.6899999999999999 0.26 0  0.72 0.26 0  0.75 0.26 0  0.78 0.26 0  0.8100000000000001 0.26 0  0.84 0.26 0  0.87 0.26 0  0.9 0.26 0  0.93 0.26 0  0.96 0.26 0  0.99 0.26 0  1.02 0.26 0  1.05 0.26 0  1.08 0.26 0  1.11 0.26 0  1.14 0.26 0  1.17 0.26 0  1.2 0.26 0  1.23 0.26 0  1.26 0.26 0  1.29 0.26 0  1.32 0.26 0  1.35 0.26 0  1.38 0.26 0  1.41 0.26 0  1.44 0.26 0  1.47 0.26 0  1.5 0.26 0  0 0.28 0  0.03 0.28 0  0.06 0.28 0  0.09 0.28 0  0.12 0.28 0  0.15 0.28 0  0.18 0.28 0  0.21 0.28 0  0.24 0.28 0  0.27 0.28 0  0.3 0.28 0  0.33 0.28 0  0.36 0.28 0  0.39 0.28 0  0.42 0.28 0  0.45 0.28 0  0.48 0.28 0  0.51 0.28 0  0.54 0.28 0  0.57 0.28 0  0.6 0.28 0  0.63 0.28 0  0.66 0.28 0  0.6899999999999999 0.28 0  0.72 0.28 0  0.75 0.28 0  0.78 0.28 0  0.8100000000000001 0.28 0  0.84 0.28 0  0.87 0.28 0  0.9 0.28 0  0.93 0.28 0  0.96 0.28 0  0.99 0.28 0  1.02 0.28
[...]
<PointData  Scalars="ControlVisualisation"> 
<DataArray  type="Float64"  Name="ControlVisualisation"  format="ascii">1.7908597627808565e-01  1.3120471573067019e-01  1.3108311113442786e-01  1.3090668446706538e-01  1.3070039502362249e-01  1.3050509891450901e-01  1.3034463069945101e-01  1.3021156356405023e-01  1.3008082688787306e-01  1.2994383883592692e-01  1.2982918560653620e-01  1.2978526127479778e-01  1.2984044657874247e-01  1.2997960892503155e-01  1.3015677511280885e-01  1.3032765581356237e-01  1.3047156509862640e-01  1.3058931549013872e-01  1.3068820574120493e-01  1.3077194742045625e-01  1.3084090359181277e-01  1.3089562270970076e-01  1.3093734334110899e-01  1.3096626107636014e-01  1.3098099783701131e-01  1.3098011524900788e-01  1.3096387473995103e-01  1.3093448571981842e-01  1.3089486398790950e-01  1.3084721589992507e-01  1.3079197179615518e-01  1.3072606391258101e-01  1.3064078115610134e-01  1.3052303405368115e-01  1.3036431015937422e-01  1.3017590234921028e-01  1.2999958574984966e-01  1.2989650445522863e-01  1.2990856657778410e-01  1.3001954341077035e-01  1.3015839500488641e-01  1.3025046910291166e-01  1.3027199586530003e-01  1.3026454961741835e-01  1.3030678846260610e-01  1.3045653614037536e-01  1.3069949974235229e-01  1.3095367724367782e-01  1.3113653296798253e-01  1.3124256228012338e-01  2.6384811876063058e-01  1.3123868978371417e-01  6.8759350606050373e-02  6.8893693401648110e-02  6.9328004263660259e-02  7.0127059069888781e-02  7.1197180401392085e-02  7.2352422693877871e-02  7.3400377164717978e-02  7.4186482259168629e-02  7.4654279911578358e-02  7.4888640324238115e-02  7.5065089402243851e-02  7.5329446198127259e-02  7.5711822643152543e-02  7.6136991832308820e-02  7.6503790888341500e-02  7.6758410926648465e-02  7.6908511603229951e-02  7.6988442709041385e-02  7.7025088888033166e-02  7.7032598930374174e-02  7.7022396735398596e-02  7.7006637081936030e-02  7.6993336145566124e-02  7.6983548822459516e-02  7.6975077757730520e-02  7.6968136413961913e-02  7.6966989487738890e-02  7.6976580799700101e-02  7.6998185139385764e-02  7.7027037624063613e-02  7.7049059444418366e-02  7.7034511360330724e-02  7.6937316914472947e-02  7.6714125512477915e-02  7.6363978050395478e-02  7.5963664490528104e-02  7.5652222162929286e-02  7.5537724893485370e-02  7.5579397777259000e-02  7.5558286637206443e-02  7.5196483738385195e-02  7.4343022962082062e-02  7.3073383428326200e-02  7.1646638386171788e-02  7.0366355310758688e-02  6.9440723990282546e-02  6.8923120586196651e-02  6.8730542408716122e-02  6.8710169379662178e-02  1.3125129473706135e-01  1.3121331326767399e-01  6.8866878399036394e-02  6.9438053842313330e-02  7.0871473901634924e-02  7.3408133553587648e-02  7.6805998576634255e-02  8.0559411027176786e-02  8.4121997137393351e-02  8.7014105829695029e-02  8.8982023796883705e-02  9.0158945540384852e-02  9.0968419996433764e-02  9.1801468895201480e-02  9.2773865670960076e-02  9.3736658295079378e-02  9.4467320453906323e-02  9.4855748526399761e-02  9.4946767801333293e-02  9.4851728164775898e-02  9.4656182521774851e-02  9.4407032930781148e-02  9.4143095505298702e-02  9.3905820851764493e-02  9.3725338718727638e-02  9.3611516315493304e-02  9.3562383807340943e-02  9.3578126386750476e-02  9.3665668352368697e-02  9.3830902898798280e-02  9.4068938089445081e-02  9.4361682776389150e-02  9.4674022250602785e-02  9.4935705545563770e-02  9.5027282024099019e-02  9.4812949452528356e-02  9.4236294551392596e-02  9.3428527156543040e-02  9.2703983234638326e-02  9.2341652826619020e-02  9.2266300861725270e-02  9.1931298135698197e-02  9.0614466639571692e-02  8.7939504994431303e-02  8.4133443898805074e-02  7.9847905225015156e-02  7.5819350321827531e-02  7.2582260998890508e-02  7.0406758273885539e-02  6.9268973976580855e-02  6.8805496893647511e-02  1.3121689929552585e-01  1.3121235146970836e-01  6.9039272053760259e-02  7.0130028532877864e-02  7.2556321454290057e-02  7.6458054533701525e-02  8.1189621451821514e-02  8.5989371469253867e-02  9.0277724397355458e-02  9.3585998352224142e-02  9.5667892643696101e-02  9.6779905247368334e-02  9.7568464516475759e-02  9.8573124081820715e-02  9.9875949153267959e-02  1.0116211006415016e-01  1.0205154369529194e-01  1.0239359198662180e-01  1.0230604335460254e-01  1.0199507485648635e-01  1.0159003843514061e-01  1.0114041044623515e-01  1.0068861865938981e-01  1.0029274770721011e-01  9.9998139152462695e-02  9.9818469724414771e-02  9.9747852981101337e-02  9.9782930497015795e-02  9.9931142089526942e-02  1.0019987743373215e-01  1.0058264527470667e-01  1.0106007580019373e-01  1.0160006445468087e-01  1.0212390723769732e-01  1.0246090338746418e-01  1.0237348552874240e-01  1.0170515351319430e-01  1.0059864900587125e-01  9.9565801300707260e-02  9.9158674306469297e-02  9.9399177570926894e-02  9.9517722782222678e-02  9.8406428255421285e-02  9.5472637836163637e-02  9.0939801511901647e-02  8.5471287539864327e-02  7.9990818156189802e-02  7.5219381547211556e-02  7.1748725712315151e-02  6.9801333220176551e-02  6.8950641400023313e-02  1.3120354022056621e-01  1.3124345051755187e-01  6.9353773227418841e-02  7.2099898909509519e-02  7.7746907915028904e-02  8.5202824566589619e-02  9.2063037830486624e-02  9.6906827332665979e-02  9.9822533046034681e-02  1.0119251428328276e-01  1.0132328295348333e-01  1.0085991134530679e-01  1.0069423304826369e-01  1.0137310136538452e-01  1.0275497694677521e-01  1.0420353786760572e-01  1.0510278612375537e-01  1.0526057444111034e-01  1.0490636348602553e-01  1.0436646318155866e-01  1.0379719882192820e-01  1.0321378122253641e-01  1.0263788296428308e-01  1.0213718915227890e-01  1.0177133873890801e-01  1.0155613021676804e-01  1.0147869770522497e-01  1.0152866550787661e-01  1.0171167787485105e-01  1.0203685154011621e-01  1.0249899624656378e-01  1.0308569241722777e-01  1.0378860906394062e-01  1.0455328803942344e-01  1.0518181141833072e-01  1.0532201987309492e-01  1.0466046556373562e-01  1.0330411890890412e-01  1.0202965065523031e-01  1.0185292315516054e-01  1.0310802694292498e-01  1.0493405754665563e-01  1.0583141970373536e-01  1.0496576807348929e-01  1.0221576837451000e-01  9.7268957501962100e-02  9.0618000317409089e-02  8.2805208225100402e-02  7.5701545223101685e-02  7.1042136022046579e-02  6.9202058376818212e-02  1.3123345754650090e-01  1.3108092032416632e-01  7.0204080059293711e-02  7.8290809667916600e-02  9.2226114899825629e-02  1.1159526112734713e-01  1.2843106397981077e-01  1.3391648419974117e-01  1.2908711190615024e-01  1.2078933835574783e-01  1.1294960395741968e-01  1.0717638856391194e-01  1.0413397573612476e-01  1.0364093172294242e-01  1.0475484801167254e-01  1.0617788104338885e-01  1.0691308569502980e-01  1.0671515385174776e-01  1.0596744770293956e-01  1.0515093475866905e-01  1.0443308635472193e-01  1.0374861229773694e-01  1.0307125155064162e-01  1.0247841474900977e-01  1.0205131248438878e-01  1.0181084115066963e-01  1.0173587643448155e-01  1.0180537852453109e-01  1.0201927239057522e-01  1.0238637815997617e-01  1.0290260588585877e-01  1.0356548511386807e-01  1.0440642863246061e-01  1.0543042805667741e-01  1.0644634499535058e-01  1.0697468988132701e-01  1.0645438621324467e-01  1.0487552070582487e-01  1.0340914610435692e-01  1.0388841794847811e-01  1.0745605656699388e-01  1.1367692685408573e-01  1.2107272127107931e-01  1.2897544676429629e-01  1.3458115036656004e-01  1.2955568969133729e-01  1.1707645744859790e-01  1.0383763971127591e-01  9.1514605564790880e-02  7.7186456756995578e-02  6.9661422741993939e-02  1.3127406406395684e-01  1.2872458770770592e-01  7.1988874673307557e-02  8.5586613126402922e-02  9.7006434887916396e-02  1.1143346369855062e-01  1.2784549648859647e-01  1.5415883302194155e-01  1.8714464311131820e-01  1.8013769837482180e-01  1.4748671886874268e-01  1.2376333726023164e-01  1.1195628895476661e-01  1.0793653342982072e-01  1.0786199515177337e-01  1.0877516532296924e-01  1.0895230859232086e-01  1.0806937123335075e-01  1.0670562418483120e-01  1.0550839518177846e-01  1.0461929523197379e-01  1.0383532010324723e-01  1.0304811372245098e-01  1.0234624637040238e-01  1.0184547233182817e-01  1.0157788127300657e-01  1.0151323017412289e-01  1.0161528950311029e-01  1.0187210013054052e-01  1.0228734321787390e-01  1.0285590681325102e-01  1.0358690827349848e-01  1.0456716840858551e-01  1.0590477140217866e-01  1.0747440967081436e-01  1.0867864972298757e-01  1.0859024317567241e-01  1.0693143306446630e-01  1.0544936421870964e-01  1.0752187627989268e-01  1.1662293859719103e-01  1.3526767636048498e-01  1.6414724175986617e-01  1.9227124732147743e-01  1.7622398240149184e-01  1.3510889595378037e-01  1.1480607164367870e-01  1.0659612305083216e-01  1.0141048647409358e-01  8.9000659527749965e-02  7.1107010096467596e-02  1.3071553478096626e-01  1.2948594684466169e-01  7.5918913654659040e-02  1.3620582599649081e-01  1.9603836087527698e-01  2.0825967417509134e-01  2.0426526690641009e-01  1.8640970899062057e-01  1.7550400467223529e-01  1.9684115277080932e-01  2.1065769120475120e-01  1.6947202112004106e-01  1.3427544871414254e-01  1.1940922017949895e-01  1.1505679673865415e-01  1.1385913488233732e-01  1.1236969514958631e-01  1.1003213081642563e-01  1.0760143842610434e-01  1.0585098977622501e-01  1.0476025186381707e-01  1.0385243909436051e-01  1.0290999199695852e-01  1.0205031665453253e-01  1.0144119814369854e-01  1.0113315227251644e-01  1.0108540677043056e-01  1.0124128782734926e-01  1.0156885695495160e-01  1.0205651293079335e-01  1.0268995736059834e-01  1.0348871095690429e-01  1.0461598793187205e-01  1.0635630534719326e-01  1.0876918181284782e-01  1.1121012435981920e-01  1.1227547478158947e-01  1.1113452422039355e-01  1.1047280300234863e-01  1.1720202286544516e-01  1.4171730086968751e-01  1.9654976052374140e-01  2.4446412101115678e-01  2.0055887226261745e-01  1.7037013515773958e-01  1.8089081836198026e-01  1.9739162735180238e-01  1.9876917386331688e-01  1.9034054211243323e-01  1.7473651146430874e-01  7.6984360064253868e-02  1.2544682490668857e-01  1.6841653446700156e-01  1.5762237808242088e-01  2.7533107511229554e-01  3.1141264420849829e-01  3.1404130598328733e-01  3.0687094785180336e-01  2.9117658015000036e-01  2.5411545357038878e-01  2.1662060820132820e-01  2.0277155061768526e-01  1.9828225538813804e-01  1.8460296204697857e-01  1.5432315272874642e-01  1.3578881810719465e-01  1.2674226230681018e-01  1.2006851880837641e-01  1.1404168458264322e-01  1.0930121330135642e-01  1.0647463529235131e-01  1.0511717321122679e-01  1.0406521952603967e-01  1.0288270504978336e-01  1.0177047699977947e-01  1.0098988728359948e-01  1.0061335263720940e-01  1.0058352156200887e-01  1.0081942930406733e-01  1.0126479549819663e-01  1.0188098069399742e-01  1.0262914575328801e-01  1.0353335240951772e-01  1.0484890586599337e-01  1.0714910553923060e-01  1.1098462054142258e-01  1.1603284373885153e-01  1.2041911519603730e-01  1.2222008598007537e-01  1.2621895877676431e-01  1.4695458221736801e-01  2.0986986560428422e-01  2.8252337890947066e-01  2.2456161562523580e-01  2.1579324093738972e-01  2.5576999829727720e-01  2.9458259295687717e-01  3.0682701825226699e-01  3.0883420973948938e-01  3.0928130315504554e-01  2.8528103474225203e-01  1.5770313104262321e-01  1.3274204063538028e-01  4.3188443165282320e-01  4.6662207227835295e-01  4.8578187179621451e-01  4.3091339289844832e-01  4.0153242175295500e-01  3.9025751481234472e-01  3.7594520407658949e-01  3.5064776256621627e-01  3.0844097371013990e-01  2.5284585537277360e-01  2.0564141016800974e-01  1.7972751899535974e-01  2.0655466753691637e-01  2.0317651163280298e-01  1.6662891333158325e-01  1.4178560192704392e-01  1.2502652330457353e-01  1.1509913354340549e-01  1.0888331400632911e-01  1.0655985630160235e-01  1.0512863429204952e-01  1.0348802452258891e-01  1.0192157762205575e-01  1.0084750852016292e-01  1.0035507013870459e-01  1.0034150409169817e-01  1.0069574617294474e-01  1.0134395595781531e-01  1.0221537524002144e-01  1.0323480168453722e-01  1.0444594749697775e-01  1.0625868352441814e-01  1.0967824415854616e-01  1.1635416786375707e-01  1.2801416593978127e-01  1.4403349499775028e-01  1.5860969952251791e-01  1.7008083580473687e-01  1.8576896778188315e-01  2.1130518883234178e-01  2.3244128423834426e-01  2.5784553599066895e-01  3.1399365566856752e-01  3.5770590115667111e-01  3.7781952205549468e-01  3.7865373630136423e-01  3.9768382664808793e-01  4.4511275974884512e-01  4.8450626914371842e-01  4.9483000647961767e-01  4.0012533923243837e-01  7.2687505642404271e-01  7.2091326357075958e-01  6.5150797886227529e-01  6.2297276026894710e-01  5.3707701859758117e-01  4.6675058954809467e-01  4.3589027392292190e-01  4.1006279344950847e-01  3.8091476076107050e-01  3.3768396680304724e-01  2.7613310223824999e-01  2.1484036097851461e-01  1.8405667792297017e-01  2.5052781478313990e-01  3.0594879795952484e-01  2.1940310522791157e-01  1.6174921039366130e-01  1.3217866935035541e-01  1.1866663455514431e-01  1.1306212932225934e-01  1.0996774624864171e-01  1.0693091531125298e-01  1.0423766762372744e-01  1.0249526895101355e-01  1.0174164094126190e-01  1.0172641367973101e-01  1.0228376879018083e-01  1.0335590906618315e-01  1.0485471566937166e-01  1.0665602916843220e-01  1.0889880001356664e-01  1.1243857774202297e-01  1.1932128006442538e-01  1.3430737468961035e-01  1.6886269845327828e-01  2.4023222412733497e-01  2.6144373155210571e-01  1.8738673697145963e-01  1.7047779110265637e-01  2.1398637610626234e-01  2.7850747244631269e-01  3.4766065181462863e-01  3.9536576989011640e-01  4.1724194614818311e-01  4.3054558661099163e-01  4.7597047776212498e-01  5.4763740338801048e-01  6.0103467198171900e-01  6.3803955962603820e-01  7.3213196550302440e-01  6.8603207904333630e-01  8.6800150335852710e-01  8.9828587170527729e-01  7.9707589777834809e-01  6.8271556707143111e-01  6.5503890445163537e-01  5.8346721067446061e-01  5.1086454927788183e-01  4.6706826663238876e-01  4.3259694884174094e-01  3.9390218272672711e-01  3.4857399852978721e-01  2.9354104828916411e-01  2.3841469608107480e-01  2.1981059862977931e-01  3.4913414050328928e-01  3.9946157558739176e-01  2.9878656537549131e-01  2.0844071861248903e-01  1.6254460384038047e-01  1.4255506286936392e-01  1.3154441400715028e-01  1.2277486792605147e-01  1.1613160047163112e-01  1.1225584648048618e-01  1.1066127721516916e-01  1.1053927776240108e-01  1.1156574934490002e-01  1.1383320830512382e-01  1.1740085525531589e-01  1.2223199283946490e-01  1.2888702842910507e-01  1.3972032987194599e-01  1.6064014997923609e-01  2.1068688974648031e-01  3.7251377037837019e-01  6.1639711229103777e-01  2.5610084189840693e-01  1.8797222308060063e-01  2.2998556254940802e-01  2.9051545906426424e-01  3.5471246448520011e-01  4.1211214653291739e-01  4.4515168439779029e-01  4.6870181374855124e-01  5.1816489706636881e-01  5.8881561585837372e-01  6.4116506519966066e-01  6.7588752845929001e-01  8.1224295002288549e-01  9.0452797660023543e-01  8.4926416541936522e-01  9.0120580187922128e-01  9.3267740330187121e-01  8.8270430638719277e-01  7.7430997837212301e-01  6.7296986898756861e-01  6.5023100543536316e-01  5.9343943106124486e-01  5.2997147487886342e-01  4.8718211692833086e-01  4.5124595077532142e-01  4.0715817795808362e-01  3.5618721354207311e-01  3.1383022926117798e-01  2.7309548990267291e-01  2.6469089764136594e-01  3.1863589552389804e-01  2.4330089198065202e-01  2.5716433093102437e-01  3.0789952045808738e-01  2.9406029943785417e-01  2.4563543246728248e-01  2.0460973053720313e-01  1.7706423213946310e-01  1.6225092771362948e-01  1.5611267033470128e-01  1.5486902106528927e-01  1.5741786381774570e-01  1.6483713038103301e-01  1.7860135210912526e-01  1.9950793676658016e-01  2.2707447042571133e-01  2.5732694093317532e-01  2.8304626171595654e-01  3.0865763970437898e-01  3.3648120299286427e-01  2.9063984437554335e-01  2.3927915251324539e-01  2.6572324782520412e-01  3.0988286231695461e-01  3.6160778661727477e-01  4.2049398022604012e-01  4.6050106612365166e-01  4.9083780946567612e-01  5.3802640430713822e-01  5.9946790818500795e-01  6.4702919907063350e-01  6.6940147933721350e-01  7.8027213357933511e-01  8.8460442454986610e-01  9.3356880261111408e-01  8.9722968990808039e-01  8.9741910506340206e-01  9.3512421079686536e-01  8.9448194430771233e-01  8.1734302989435048e-01  7.1046822478868887e-01  6.5648193598891624e-01  6.3584898588661898e-01  5.8920309482295374e-01  5.3773656960624838e-01  5.0061454652380288e-01  4.6986209156125291e-01  4.2985931645690517e-01  3.7890685981178213e-01  3.4070337880717838e-01  3.0939837305963519e-01  2.7232949173671323e-01  2.3261327720776151e-01  1.8651761910907966e-01  1.7510360174184109e-01  1.9873382048155586e-01  2.1397787710532462e-01  2.0052376747822814e-01  1.8837283225579321e-01  1.8491721517580478e-01  1.8508981160784765e-01  1.8486530276322183e-01  1.8601765415479132e-01  1.9194692145970954e-01  2.0086345223214297e-01  2.0420430073688672e-01  1.9605071771843025e-01  1.8326507234434120e-01  1.7931910315465588e-01  1.9495958071256031e-01  2.2968963674900086e-01  2.6488482986431211e-01  3.0046872736155006e-01  3.4596862891616631e-01  3.9280471694762842e-01  4.3799944266324486e-01  4.7115188893558746e-01  5.0214031130157266e-01  5.4577332737459539e-01  5.9683008957120376e-01  6.3798142182614115e-01  6.5362425308041305e-01  7.1329884239847086e-01  8.1773725892740556e-01  8.9405901896313167e-01  9.3443071612900841e-01  9.0152961740619142e-01  8.5007591109293990e-01  9.1384581575289492e-01  8.6832447510325705e-01  7.9760991216743038e-01  7.1725592901219881e-01  6.5758371094475176e-01  6.3871123736564916e-01  6.1883430076137291e-01  5.8192257974263728e-01  5.4089177267150912e-01  5.1028683566851774e-01  4.8669038167812106e-01  4.5713054879627729e-01  4.1524911301344225e-01  3.7574602929701650e-01  3.4495986448086274e-01  3.0840336332150642e-01  2.7144944889870720e-01  2.4229437239651111e-01  2.2471145420161304e-01  2.1149098807747385e-01  1.9382739130647664e-01  1.7713534424700086e-01  1.6863737441847232e-01  1.6675933117940470e-01  1.6723041868035532e-01  1.6899326889868604e-01  1.7355345163031691e-01  1.8115280952811391e-01  1.9039435225439608e-01  2.0162534481205169e-01  2.1795009019937461e-01  2.4165570422787841e-01  2.7253426749691634e-01  3.0820680795163402e-01  3.4646587549089136e-01  3.8925893655443711e-01  4.3159245899398035e-01  4.6450774252732713e-01  4.8521984924628148e-01  5.0998917516917874e-01  5.4732344089632812e-01  5.8975741699083173e-01  6.2362792162181113e-01  6.3829898447181588e-01  6.5946042671364358e-01  7.1921918124352668e-01  7.9686202728060795e-01  8.6518333383713464e-01  9.0944260605667637e-01  8.6947935948307031e-01  6.8022693773031329e-01  7.9972254134177467e-01  7.5826787068330737e-01  7.1381003325185277e-01  6.7345985490066085e-01  6.4293390196543121e-01  6.2693396219464781e-01  6.1850627418088722e-01  6.0265844578594674e-01  5.7457553420119545e-01  5.4229159367225832e-01  5.1749151526084336e-01  5.0050965410506398e-01  4.7958987898304306e-01  4.4641135062441767e-01  4.0821100016633860e-01  3.7765885173985991e-01  3.5210276871063628e-01  3.3150304588768265e-01  3.1961537456927525e-01  3.1123988185625079e-01  2.9992828236160723e-01  2.8757753807740016e-01  2.7920214691357270e-01  2.7640194050978284e-01  2.7694308148997548e-01  2.7898305167213572e-01  2.8299835896452807e-01  2.8945976767753945e-01  2.9742568090495974e-01  3.0620732749523505e-01  3.1701102258053299e-01  3.3219613867946135e-01  3.5363964397955977e-01  3.8266145721998068e-01  4.1923039051539279e-01  4.5692002586381952e-01  4.8432394262548356e-01  4.9966656426442257e-01  5.1859535010374991e-01  5.4846819213038744e-01  5.8243361895799095e-01  6.0826610129949743e-01  6.1951987652567131e-01  6.2761754503765799e-01  6.4834146213709198e-01  6.8117471104823102e-01  7.1532510782033742e-01  7.5558084788514324e-01  7.9434168065438704e-01  7.3300397371351855e-01  4.1497401649784216e-01  5.3338460173400815e-01  5.5259956707677871e-01  5.9155477414571955e-01  5.9527048286299122e-01  5.9638485839918176e-01  5.9691104137898354e-01  5.9829366515370874e-01  5.9751383978828398e-01  5.8841779042576026e-01  5.6862865507621774e-01  5.4398788303809231e-01  5.239493801