<?xml version="1.0"?>
<VTKFile type="UnstructuredGrid"  version="0.1"  >
<UnstructuredGrid>
<Piece  NumberOfPoints="2601" NumberOfCells="5000">
<Points>
<DataArray  type="Float64"  NumberOfComponents="3"  format="ascii">0 0 0  0.03 0 0  0.06 0 0  0.09 0 0  0.12 0 0  0.15 0 0  0.18 0 0  0.21 0 0  0.24 0 0  0.27 0 0  0.3 0 0  0.33 0 0  0.36 0 0  0.39 0 0  0.42 0 0  0.45 0 0  0.48 0 0  0.51 0 0  0.54 0 0  0.57 0 0  0.6 0 0  0.63 0 0  0.66 0 0  0.6899999999999999 0 0  0.72 0 0  0.75 0 0  0.78 0 0  0.8100000000000001 0 0  0.84 0 0  0.87 0 0  0.9 0 0  0.93 0 0  0.96 0 0  0.99 0 0  1.02 0 0  1.05 0 0  1.08 0 0  1.11 0 0  1.14 0 0  1.17 0 0  1.2 0 0  1.23 0 0  1.26 0 0  1.29 0 0  1.32 0 0  1.35 0 0  1.38 0 0  1.41 0 0  1.44 0 0  1.47 0 0  1.5 0 0  0 0.02 0  0.03 0.02 0  0.06 0.02 0  0.09 0.02 0  0.12 0.02 0  0.15 0.02 0  0.18 0.02 0  0.21 0.02 0  0.24 0.02 0  0.27 0.02 0  0.3 0.02 0  0.33 0.02 0  0.36 0.02 0  0.39 0.02 0  0.42 0.02 0  0.45 0.02 0  0.48 0.02 0  0.51 0.02 0  0.54 0.02 0  0.57 0.02 0  0.6 0.02 0  0.63 0.02 0  0.66 0.02 0  0.6899999999999999 0.02 0  0.72 0.02 0  0.75 0.02 0  0.78 0.02 0  0.8100000000000001 0.02 0  0.84 0.02 0  0.87 0.02 0  0.9 0.02 0  0.93 0.02 0  0.96 0.02 0  0.99 0.02 0  1.02 0.02 0  1.05 0.02 0  1.08 0.02 0  1.11 0.02 0  1.14 0.02 0  1.17 0.02 0  1.2 0.02 0  1.23 0.02 0  1.26 0.02 0  1.29 0.02 0  1.32 0.02 0  1.35 0.02 0  1.38 0.02 0  1.41 0.02 0  1.44 0.02 0  1.47 0.02 0  1.5 0.02 0  0 0.04 0  0.03 0.04 0  0.06 0.04 0  0.09 0.04 0  0.12 0.04 0  0.15 0.04 0  0.18 0.04 0  0.21 0.04 0  0.24 0.04 0  0.27 0.04 0  0.3 0.04 0  0.33 0.04 0  0.36 0.04 0  0.39 0.04 0  0.42 0.04 0  0.45 0.04 0  0.48 0.04 0  0.51 0.04 0  0.54 0.04 0  0.57 0.04 0  0.6 0.04 0  0.63 0.04 0  0.66 0.04 0  0.6899999999999999 0.04 0  0.72 0.04 0  0.75 0.04 0  0.78 0.04 0  0.8100000000000001 0.04 0  0.84 0.04 0  0.87 0.04 0  0.9 0.04 0  0.93 0.04 0  0.96 0.04 0  0.99 0.04 0  1.02 0.04 0  1.05 0.04 0  1.08 0.04 0  1.11 0.04 0  1.14 0.04 0  1.17 0.04 0  1.2 0.04 0  1.23 0.04 0  1.26 0.04 0  1.29 0.04 0  1.32 0.04 0  1.35 0.04 0  1.38 0.04 0  1.41 0.04 0  1.44 0.04 0  1.47 0.04 0  1.5 0.04 0  0 0.06 0  0.03 0.06 0  0.06 0.06 0  0.09 0.06 0  0.12 0.06 0  0.15 0.06 0  0.18 0.06 0  0.21 0.06 0  0.24 0.06 0  0.27 0.06 0  0.3 0.06 0  0.33 0.06 0  0.36 0.06 0  0.39 0.06 0  0.42 0.06 0  0.45 0.06 0  0.48 0.06 0  0.51 0.06 0  0.54 0.06 0  0.57 0.06 0  0.6 0.06 0  0.63 0.06 0  0.66 0.06 0  0.6899999999999999 0.06 0  0.72 0.06 0  0.75 0.06 0  0.78 0.06 0  0.8100000000000001 0.06 0  0.84 0.06 0  0.87 0.06 0  0.9 0.06 0  0.93 0.06 0  0.96 0.06 0  0.99 0.06 0  1.02 0.06 0  1.05 0.06 0  1.08 0.06 0  1.11 0.06 0  1.14 0.06 0  1.17 0.06 0  1.2 0.06 0  1.23 0.06 0  1.26 0.06 0  1.29 0.06 0  1.32 0.06 0  1.35 0.06 0  1.38 0.06 0  1.41 0.06 0  1.44 0.06 0  1.47 0.06 0  1.5 0.06 0  0 0.08 0  0.03 0.08 0  0.06 0.08 0  0.09 0.08 0  0.12 0.08 0  0.15 0.08 0  0.18 0.08 0  0.21 0.08 0  0.24 0.08 0  0.27 0.08 0  0.3 0.08 0  0.33 0.08 0  0.36 0.08 0  0.39 0.08 0  0.42 0.08 0  0.45 0.08 0  0.48 0.08 0  0.51 0.08 0  0.54 0.08 0  0.57 0.08 0  0.6 0.08 0  0.63 0.08 0  0.66 0.08 0  0.6899999999999999 0.08 0  0.72 0.08 0  0.75 0.08 0  0.78 0.08 0  0.8100000000000001 0.08 0  0.84 0.08 0  0.87 0.08 0  0.9 0.08 0  0.93 0.08 0  0.96 0.08 0  0.99 0.08 0  1.02 0.08 0  1.05 0.08 0  1.08 0.08 0  1.11 0.08 0  1.14 0.08 0  1.17 0.08 0  1.2 0.08 0  1.23 0.08 0  1.26 0.08 0  1.29 0.08 0  1.32 0.08 0  1.35 0.08 0  1.38 0.08 0  1.41 0.08 0  1.44 0.08 0  1.47 0.08 0  1.5 0.08 0  0 0.1 0  0.03 0.1 0  0.06 0.1 0  0.09 0.1 0  0.12 0.1 0  0.15 0.1 0  0.18 0.1 0  0.21 0.1 0  0.24 0.1 0  0.27 0.1 0  0.3 0.1 0  0.33 0.1 0  0.36 0.1 0  0.39 0.1 0  0.42 0.1 0  0.45 0.1 0  0.48 0.1 0  0.51 0.1 0  0.54 0.1 0  0.57 0.1 0  0.6 0.1 0  0.63 0.1 0  0.66 0.1 0  0.6899999999999999 0.1 0  0.72 0.1 0  0.75 0.1 0  0.78 0.1 0  0.8100000000000001 0.1 0  0.84 0.1 0  0.87 0.1 0  0.9 0.1 0  0.93 0.1 0  0.96 0.1 0  0.99 0.1 0  1.02 0.1 0  1.05 0.1 0  1.08 0.1 0  1.11 0.1 0  1.14 0.1 0  1.17 0.1 0  1.2 0.1 0  1.23 0.1 0  1.26 0.1 0  1.29 0.1 0  1.32 0.1 0  1.35 0.1 0  1.38 0.1 0  1.41 0.1 0  1.44 0.1 0  1.47 0.1 0  1.5 0.1 0  0 0.12 0  0.03 0.12 0  0.06 0.12 0  0.09 0.12 0  0.12 0.12 0  0.15 0.12 0  0.18 0.12 0  0.21 0.12 0  0.24 0.12 0  0.27 0.12 0  0.3 0.12 0  0.33 0.12 0  0.36 0.12 0  0.39 0.12 0  0.42 0.12 0  0.45 0.12 0  0.48 0.12 0  0.51 0.12 0  0.54 0.12 0  0.57 0.12 0  0.6 0.12 0  0.63 0.12 0  0.66 0.12 0  0.6899999999999999 0.12 0  0.72 0.12 0  0.75 0.12 0  0.78 0.12 0  0.8100000000000001 0.12 0  0.84 0.12 0  0.87 0.12 0  0.9 0.12 0  0.93 0.12 0  0.96 0.12 0  0.99 0.12 0  1.02 0.12 0  1.05 0.12 0  1.08 0.12 0  1.11 0.12 0  1.14 0.12 0  1.17 0.12 0  1.2 0.12 0  1.23 0.12 0  1.26 0.12 0  1.29 0.12 0  1.32 0.12 0  1.35 0.12 0  1.38 0.12 0  1.41 0.12 0  1.44 0.12 0  1.47 0.12 0  1.5 0.12 0  0 0.14 0  0.03 0.14 0  0.06 0.14 0  0.09 0.14 0  0.12 0.14 0  0.15 0.14 0  0.18 0.14 0  0.21 0.14 0  0.24 0.14 0  0.27 0.14 0  0.3 0.14 0  0.33 0.14 0  0.36 0.14 0  0.39 0.14 0  0.42 0.14 0  0.45 0.14 0  0.48 0.14 0  0.51 0.14 0  0.54 0.14 0  0.57 0.14 0  0.6 0.14 0  0.63 0.14 0  0.66 0.14 0  0.6899999999999999 0.14 0  0.72 0.14 0  0.75 0.14 0  0.78 0.14 0  0.8100000000000001 0.14 0  0.84 0.14 0  0.87 0.14 0  0.9 0.14 0  0.93 0.14 0  0.96 0.14 0  0.99 0.14 0  1.02 0.14 0  1.05 0.14 0  1.08 0.14 0  1.11 0.14 0  1.14 0.14 0  1.17 0.14 0  1.2 0.14 0  1.23 0.14 0  1.26 0.14 0  1.29 0.14 0  1.32 0.14 0  1.35 0.14 0  1.38 0.14 0  1.41 0.14 0  1.44 0.14 0  1.47 0.14 0  1.5 0.14 0  0 0.16 0  0.03 0.16 0  0.06 0.16 0  0.09 0.16 0  0.12 0.16 0  0.15 0.16 0  0.18 0.16 0  0.21 0.16 0  0.24 0.16 0  0.27 0.16 0  0.3 0.16 0  0.33 0.16 0  0.36 0.16 0  0.39 0.16 0  0.42 0.16 0  0.45 0.16 0  0.48 0.16 0  0.51 0.16 0  0.54 0.16 0  0.57 0.16 0  0.6 0.16 0  0.63 0.16 0  0.66 0.16 0  0.6899999999999999 0.16 0  0.72 0.16 0  0.75 0.16 0  0.78 0.16 0  0.8100000000000001 0.16 0  0.84 0.16 0  0.87 0.16 0  0.9 0.16 0  0.93 0.16 0  0.96 0.16 0  0.99 0.16 0  1.02 0.16 0  1.05 0.16 0  1.08 0.16 0  1.11 0.16 0  1.14 0.16 0  1.17 0.16 0  1.2 0.16 0  1.23 0.16 0  1.26 0.16 0  1.29 0.16 0  1.32 0.16 0  1.35 0.16 0  1.38 0.16 0  1.41 0.16 0  1.44 0.16 0  1.47 0.16 0  1.5 0.16 0  0 0.18 0  0.03 0.18 0  0.06 0.18 0  0.09 0.18 0  0.12 0.18 0  0.15 0.18 0  0.18 0.18 0  0.21 0.18 0  0.24 0.18 0  0.27 0.18 0  0.3 0.18 0  0.33 0.18 0  0.36 0.18 0  0.39 0.18 0  0.42 0.18 0  0.45 0.18 0  0.48 0.18 0  0.51 0.18 0  0.54 0.18 0  0.57 0.18 0  0.6 0.18 0  0.63 0.18 0  0.66 0.18 0  0.6899999999999999 0.18 0  0.72 0.18 0  0.75 0.18 0  0.78 0.18 0  0.8100000000000001 0.18 0  0.84 0.18 0  0.87 0.18 0  0.9 0.18 0  0.93 0.18 0  0.96 0.18 0  0.99 0.18 0  1.02 0.18 0  1.05 0.18 0  1.08 0.18 0  1.11 0.18 0  1.14 0.18 0  1.17 0.18 0  1.2 0.18 0  1.23 0.18 0  1.26 0.18 0  1.29 0.18 0  1.32 0.18 0  1.35 0.18 0  1.38 0.18 0  1.41 0.18 0  1.44 0.18 0  1.47 0.18 0  1.5 0.18 0  0 0.2 0  0.03 0.2 0  0.06 0.2 0  0.09 0.2 0  0.12 0.2 0  0.15 0.2 0  0.18 0.2 0  0.21 0.2 0  0.24 0.2 0  0.27 0.2 0  0.3 0.2 0  0.33 0.2 0  0.36 0.2 0  0.39 0.2 0  0.42 0.2 0  0.45 0.2 0  0.48 0.2 0  0.51 0.2 0  0.54 0.2 0  0.57 0.2 0  0.6 0.2 0  0.63 0.2 0  0.66 0.2 0  0.6899999999999999 0.2 0  0.72 0.2 0  0.75 0.2 0  0.78 0.2 0  0.8100000000000001 0.2 0  0.84 0.2 0  0.87 0.2 0  0.9 0.2 0  0.93 0.2 0  0.96 0.2 0  0.99 0.2 0  1.02 0.2 0  1.05 0.2 0  1.08 0.2 0  1.11 0.2 0  1.14 0.2 0  1.17 0.2 0  1.2 0.2 0  1.23 0.2 0  1.26 0.2 0  1.29 0.2 0  1.32 0.2 0  1.35 0.2 0  1.38 0.2 0  1.41 0.2 0  1.44 0.2 0  1.47 0.2 0  1.5 0.2 0  0 0.22 0  0.03 0.22 0  0.06 0.22 0  0.09 0.22 0  0.12 0.22 0  0.15 0.22 0  0.18 0.22 0  0.21 0.22 0  0.24 0.22 0  0.27 0.22 0  0.3 0.22 0  0.33 0.22 0  0.36 0.22 0  0.39 0.22 0  0.42 0.22 0  0.45 0.22 0  0.48 0.22 0  0.51 0.22 0  0.54 0.22 0  0.57 0.22 0  0.6 0.22 0  0.63 0.22 0  0.66 0.22 0  0.6899999999999999 0.22 0  0.72 0.22 0  0.75 0.22 0  0.78 0.22 0  0.8100000000000001 0.22 0  0.84 0.22 0  0.87 0.22 0  0.9 0.22 0  0.93 0.22 0  0.96 0.22 0  0.99 0.22 0  1.02 0.22 0  1.05 0.22 0  1.08 0.22 0  1.11 0.22 0  1.14 0.22 0  1.17 0.22 0  1.2 0.22 0  1.23 0.22 0  1.26 0.22 0  1.29 0.22 0  1.32 0.22 0  1.35 0.22 0  1.38 0.22 0  1.41 0.22 0  1.44 0.22 0  1.47 0.22 0  1.5 0.22 0  0 0.24 0  0.03 0.24 0  0.06 0.24 0  0.09 0.24 0  0.12 0.24 0  0.15 0.24 0  0.18 0.24 0  0.21 0.24 0  0.24 0.24 0  0.27 0.24 0  0.3 0.24 0  0.33 0.24 0  0.36 0.24 0  0.39 0.24 0  0.42 0.24 0  0.45 0.24 0  0.48 0.24 0  0.51 0.24 0  0.54 0.24 0  0.57 0.24 0  0.6 0.24 0  0.63 0.24 0  0.66 0.24 0  0.6899999999999999 0.24 0  0.72 0.24 0  0.75 0.24 0  0.78 0.24 0  0.8100000000000001 0.24 0  0.84 0.24 0  0.87 0.24 0  0.9 0.24 0  0.93 0.24 0  0.96 0.24 0  0.99 0.24 0  1.02 0.24 0  1.05 0.24 0  1.08 0.24 0  1.11 0.24 0  1.14 0.24 0  1.17 0.24 0  1.2 0.24 0  1.23 0.24 0  1.26 0.24 0  1.29 0.24 0  1.32 0.24 0  1.35 0.24 0  1.38 0.24 0  1.41 0.24 0  1.44 0.24 0  1.47 0.24 0  1.5 0.24 0  0 0.26 0  0.03 0.26 0  0.06 0.26 0  0.09 0.26 0  0.12 0.26 0  0.15 0.26 0  0.18 0.26 0  0.21 0.26 0  0.24 0.26 0  0.27 0.26 0  0.3 0.26 0  0.33 0.26 0  0.36 0.26 0  0.39 0.26 0  0.42 0.26 0  0.45 0.26 0  0.48 0.26 0  0.51 0.26 0  0.54 0.26 0  0.57 0.26 0  0.6 0.26 0  0.63 0.26 0  0.66 0.26 0  0.6899999999999999 0.26 0  0.72 0.26 0  0.75 0.26 0  0.78 0.26 0  0.8100000000000001 0.26 0  0.84 0.26 0  0.87 0.26 0  0.9 0.26 0  0.93 0.26 0  0.96 0.26 0  0.99 0.26 0  1.02 0.26 0  1.05 0.26 0  1.08 0.26 0  1.11 0.26 0  1.14 0.26 0  1.17 0.26 0  1.2 0.26 0  1.23 0.26 0  1.26 0.26 0  1.29 0.26 0  1.32 0.26 0  1.35 0.26 0  1.38 0.26 0  1.41 0.26 0  1.44 0.26 0  1.47 0.26 0  1.5 0.26 0  0 0.28 0  0.03 0.28 0  0.06 0.28 0  0.09 0.28 0  0.12 0.28 0  0.15 0.28 0  0.18 0.28 0  0.21 0.28 0  0.24 0.28 0  0.27 0.28 0  0.3 0.28 0  0.33 0.28 0  0.36 0.28 0  0.39 0.28 0  0.42 0.28 0  0.45 0.28 0  0.48 0.28 0  0.51 0.28 0  0.54 0.28 0  0.57 0.28 0  0.6 0.28 0  0.63 0.28 0  0.66 0.28 0  0.6899999999999999 0.28 0  0.72 0.28 0  0.75 0.28 0  0.78 0.28 0  0.8100000000000001 0.28 0  0.84 0.28 0  0.87 0.28 0  0.9 0.28 0  0.93 0.28 0  0.96 0.28 0  0.99 0.28 0  1.02 0.28
[...]
<PointData  Scalars="ControlVisualisation"> 
<DataArray  type="Float64"  Name="ControlVisualisation"  format="ascii">1.9137477074893997e-05  1.2768589889381120e-05  1.2816273842779430e-05  1.2914274687020720e-05  1.3065211207888584e-05  1.3252994717921907e-05  1.3451684583918716e-05  1.3636664537040921e-05  1.3791263414669174e-05  1.3908037082564958e-05  1.3986492317115014e-05  1.4030226638453882e-05  1.4044962674245187e-05  1.4037286266883628e-05  1.4013717680874469e-05  1.3980084402715480e-05  1.3941220823908910e-05  1.3900913271750816e-05  1.3861974680136424e-05  1.3826376542681625e-05  1.3795409035919238e-05  1.3769852901543489e-05  1.3750142926150450e-05  1.3736502551017513e-05  1.3729038303522089e-05  1.3727795323002097e-05  1.3732783081245698e-05  1.3743979807895985e-05  1.3761317044172412e-05  1.3784637531912787e-05  1.3813616212610028e-05  1.3847639125621047e-05  1.3885646869244738e-05  1.3925960111027109e-05  1.3966108362592408e-05  1.4002682327051345e-05  1.4031242438343171e-05  1.4046343646639882e-05  1.4041757039181094e-05  1.4010945046813369e-05  1.3947725827476759e-05  1.3847291471306868e-05  1.3708051367751231e-05  1.3534342569521061e-05  1.3339129594187263e-05  1.3143786796472488e-05  1.2974079476284504e-05  1.2852177536535379e-05  1.2784580629850179e-05  1.2758031410367907e-05  3.8278025598903573e-05  1.2761194813794223e-05  6.3872024485116655e-06  6.4333533991141302e-06  6.5359623458450389e-06  6.7048237515647008e-06  6.9293284827074356e-06  7.1833340168552721e-06  7.4355058542152248e-06  7.6589486750128395e-06  7.8368039726126196e-06  7.9624736200473686e-06  8.0370786239173906e-06  8.0668428675709775e-06  8.0608597656824026e-06  8.0290886737256097e-06  7.9808291353328300e-06  7.9238917255765008e-06  7.8643546494076208e-06  7.8066525857887905e-06  7.7538105058070162e-06  7.7077334059173831e-06  7.6695087451233355e-06  7.6396862609229436e-06  7.6185044025336016e-06  7.6060478649178175e-06  7.6023403078946047e-06  7.6073887667194261e-06  7.6211959993035626e-06  7.6437462298937748e-06  7.6749555460758362e-06  7.7145690965853670e-06  7.7619899179207495e-06  7.8160390230368781e-06  7.8746657654359310e-06  7.9346393313142406e-06  7.9912556193564807e-06  8.0381228993659177e-06  8.0671479631744962e-06  8.0689412895840310e-06  8.0337510797899041e-06  7.9528526630221732e-06  7.8203150222265610e-06  7.6356565369899929e-06  7.4067952167672344e-06  7.1525092663271877e-06  6.9006612579227723e-06  6.6814397257641170e-06  6.5198020508313343e-06  6.4251280866334800e-06  6.3845095213605114e-06  1.2756513342820315e-05  1.2775539558702542e-05  6.4017536733890162e-06  6.4615924418974705e-06  6.5922153964741442e-06  6.8027818979245790e-06  7.0785866556389261e-06  7.3891267831274467e-06  7.6970932892075740e-06  7.9697459286615538e-06  8.1865987130044948e-06  8.3391872005244242e-06  8.4280263475217270e-06  8.4602889444352189e-06  8.4474159571050863e-06  8.4022991316504768e-06  8.3369883377208643e-06  8.2615131363392475e-06  8.1835915223552789e-06  8.1087771395984139e-06  8.0407754657433201e-06  7.9818309339874700e-06  7.9331394014623364e-06  7.8952338185619783e-06  7.8682918365511933e-06  7.8523405019231004e-06  7.8473676432988028e-06  7.8533700637676706e-06  7.8703670475114043e-06  7.8983890064909358e-06  7.9374267411360063e-06  7.9873101996706460e-06  8.0474884321000981e-06  8.1167067208140821e-06  8.1926139191729856e-06  8.2713444228825239e-06  8.3471137556118976e-06  8.4119010169880802e-06  8.4553699338260829e-06  8.4654267944619793e-06  8.4294853938850980e-06  8.3367268261088436e-06  8.1798685206623895e-06  7.9582701134528170e-06  7.6808332082266071e-06  7.3701119857257807e-06  7.0608407456989895e-06  6.7876123730811321e-06  6.5795650698042356e-06  6.4534372080839056e-06  6.3984349753502692e-06  1.2766860398941173e-05  1.2789538211494046e-05  6.4226997923384926e-06  6.5063322107495272e-06  6.6699507062194495e-06  6.9098705513648477e-06  7.2049626844539718e-06  7.5256531604450541e-06  7.8331019539498799e-06  8.0961373960515911e-06  8.2995817254448649e-06  8.4382763436087927e-06  8.5132892094082373e-06  8.5319196335191930e-06  8.5062224614674479e-06  8.4497167913822916e-06  8.3747058675186779e-06  8.2911911173544699e-06  8.2067776376154855e-06  8.1268928331048997e-06  8.0550831344258502e-06  7.9933839450522239e-06  7.9427566995040203e-06  7.9035226711749381e-06  7.8757068040298905e-06  7.8592487571182710e-06  7.8540976976399405e-06  7.8602402927899003e-06  7.8777072027263058e-06  7.9065735174021672e-06  7.9469303405710421e-06  7.9987775735444425e-06  8.0617913839305820e-06  8.1349603898931499e-06  8.2161511847512964e-06  8.3016714448068783e-06  8.3858848561470201e-06  8.4608539962390481e-06  8.5161208011603713e-06  8.5391693912337387e-06  8.5169491218650717e-06  8.4392860696138710e-06  8.2979854185399008e-06  8.0901103384348988e-06  7.8210173191618722e-06  7.5080914508586045e-06  7.1883230847830427e-06  6.8947715159240263e-06  6.6532720939840369e-06  6.4912561002524815e-06  6.4150850300812126e-06  1.2781429097866087e-05  1.2787019296146610e-05  6.4486366357314345e-06  6.5963276737597705e-06  6.8313573950562456e-06  7.1092857539473133e-06  7.4163031695678454e-06  7.7391468964160516e-06  8.0300977585094523e-06  8.2644381491593737e-06  8.4391208640996446e-06  8.5524332559724841e-06  8.6040909764496718e-06  8.6008311341119315e-06  8.5556854261698728e-06  8.4829675813600144e-06  8.3949406496890624e-06  8.3011732993056621e-06  8.2088678892998778e-06  8.1231464554950042e-06  8.0472501558053290e-06  7.9828465577593729e-06  7.9305007979367083e-06  7.8901918500687775e-06  7.8617140741687523e-06  7.8448893826460463e-06  7.8396234940453342e-06  7.8458927329043195e-06  7.8637361087428901e-06  7.8932780591929994e-06  7.9347451839150579e-06  7.9883928461639112e-06  8.0542595380891025e-06  8.1317343689830103e-06  8.2190432378057126e-06  8.3128238285643805e-06  8.4078193995263217e-06  8.4963951219135658e-06  8.5682477119563039e-06  8.6104705846490551e-06  8.6100522572831757e-06  8.5569104414270463e-06  8.4431946344110275e-06  8.2644575792535921e-06  8.0266415904248165e-06  7.7241342340522566e-06  7.4028595527294568e-06  7.1026623756460856e-06  6.8159148036388507e-06  6.5722623111798869e-06  6.4291550303921423e-06  1.2786879494849919e-05  1.2790378010314246e-05  6.5187253962492040e-06  6.9626230119311948e-06  7.5789025760052851e-06  7.8725123816285539e-06  7.9975715023430200e-06  8.1622098820875371e-06  8.3417658370003379e-06  8.5015912334981070e-06  8.6273592088942246e-06  8.7053024906431384e-06  8.7247669465949772e-06  8.6907269567165471e-06  8.6185957465963362e-06  8.5240460508284491e-06  8.4188556938089886e-06  8.3116688880546677e-06  8.2090715662243166e-06  8.1158209600595202e-06  8.0347821042618975e-06  7.9671025995733347e-06  7.9127571477198259e-06  7.8712230516357194e-06  7.8419818191272657e-06  7.8247220166744162e-06  7.8193184018504676e-06  7.8257429981614722e-06  7.8440306803866435e-06  7.8743415262332714e-06  7.9170614965835490e-06  7.9727984204350513e-06  8.0421238323180351e-06  8.1250195926279733e-06  8.2201927935311304e-06  8.3247299955958307e-06  8.4338080115793426e-06  8.5403985317410296e-06  8.6351713402468268e-06  8.7039500589068317e-06  8.7329269121789121e-06  8.7083985761004084e-06  8.6499053851055898e-06  8.5356932822304610e-06  8.4148466240495167e-06  8.2618099760055388e-06  8.1446757659296239e-06  7.9797758942581132e-06  7.3992326627784609e-06  6.7792519799282278e-06  6.4511480734926379e-06  1.2775926066814845e-05  1.3255003945469429e-05  7.0524965827200292e-06  9.6599503839135131e-06  1.6984818961804370e-05  2.2090532116814709e-05  1.5517889987913353e-05  1.1129630350289370e-05  9.3618758102821164e-06  8.9052015660535264e-06  8.8834579393707681e-06  8.9048429317823203e-06  8.8805809362096292e-06  8.8040095919212200e-06  8.6957971453888050e-06  8.5735285086473659e-06  8.4470553203472264e-06  8.3232356929554867e-06  8.2078489758466119e-06  8.1053429273273085e-06  8.0181938416793329e-06  7.9468342072165999e-06  7.8903673833859512e-06  7.8475524794789151e-06  7.8174738757221569e-06  7.7997042117794094e-06  7.7941337078533222e-06  7.8007482409770375e-06  7.8195485574497450e-06  7.8506791623266206e-06  7.8946796794146257e-06  7.9526208842936933e-06  8.0258454331771047e-06  8.1152161000139203e-06  8.2200297964741387e-06  8.3378276459307887e-06  8.4642150084266992e-06  8.5940904516624863e-06  8.7188753898479681e-06  8.8213849791459376e-06  8.8911941172003108e-06  8.9135042411393360e-06  8.9923119610301348e-06  9.1328317913565567e-06  9.8296403835214152e-06  1.1334480658548535e-05  1.4776575340768172e-05  2.1753276697059555e-05  1.7893957484104230e-05  1.0251740490074752e-05  6.9284942638681714e-06  1.2829527294232470e-05  1.4411966359553079e-05  1.5753555856253922e-05  2.9606996564380334e-02  5.7081093623549205e-02  5.3066657174081475e-02  3.3358133720460106e-02  1.0441627283768023e-02  3.0994149136499477e-05  1.1741768708672151e-05  9.5121556621184064e-06  9.1944781500276899e-06  9.0830515876793621e-06  8.9419946137177104e-06  8.7860788785323224e-06  8.6304516888866604e-06  8.4788884201379149e-06  8.3352043509289725e-06  8.2043861461694846e-06  8.0908608346758678e-06  7.9968212958409785e-06  7.9216946612734018e-06  7.8632672547009788e-06  7.8192701258001638e-06  7.7883160079756233e-06  7.7699452928999288e-06  7.7641692817676676e-06  7.7710265089261397e-06  7.7904251769154866e-06  7.8223737263261725e-06  7.8675015989528093e-06  7.9274661457871962e-06  8.0047162944836099e-06  8.1014711881105026e-06  8.2177384963758658e-06  8.3512802221337918e-06  8.4985924867466548e-06  8.6568462152119466e-06  8.8165810126380510e-06  8.9750913126910235e-06  9.1183114583180849e-06  9.2718424395012726e-06  1.0092418395038336e-05  1.2226102556180028e-05  2.4250164796477747e-05  7.5275319983674656e-03  2.9001443334273083e-02  5.0053937539441214e-02  5.7551336748176647e-02  4.1294490478593217e-02  1.6269653935530034e-05  1.4356117365955594e-05  3.1677765004880571e-05  8.9851968720483857e-02  2.0995165346431302e-01  2.1430067490037918e-01  1.8044772574256510e-01  1.3265612169927365e-01  8.2102998389893142e-02  3.7904567970228807e-02  5.8330848191671661e-03  1.6378926285255568e-05  1.0310539026627926e-05  9.4089628043154615e-06  9.1111297621979737e-06  8.8870843239006044e-06  8.6939257780524644e-06  8.5138413550965354e-06  8.3469246166096943e-06  8.1976628638373530e-06  8.0711720795459415e-06  7.9697291478386728e-06  7.8912419525528055e-06  7.8314241042574788e-06  7.7865239737196590e-06  7.7546500096402348e-06  7.7355229055071867e-06  7.7294757517250484e-06  7.7366713743320408e-06  7.7568270956808727e-06  7.7895711718716448e-06  7.8354508080671918e-06  7.8968146989745327e-06  7.9777122772233442e-06  8.0826191646537078e-06  8.2126551927422459e-06  8.3642702995433001e-06  8.5363835139582525e-06  8.7243397519405110e-06  8.9397897356295344e-06  9.2106041876239850e-06  9.6043735401686757e-06  1.0802805398210812e-05  1.6349988273820871e-05  2.8696892393089419e-03  3.1008961792181784e-02  7.5889227113487667e-02  1.2830169166652736e-01  1.7552938042863075e-01  2.0851560222176913e-01  2.0804811127474343e-01  1.1427281429989077e-01  2.3319674824983299e-05  4.0113242833293777e-01  4.6408786834302157e-01  4.9574196432392037e-01  4.2301842019434360e-01  3.5488396191220378e-01  2.7485127402610926e-01  1.9378460765052530e-01  1.1969063794282861e-01  5.9869711511387813e-02  1.6792978510945338e-02  2.9239209416537746e-05  1.1339217321209013e-05  9.4257119592249585e-06  9.0106872454579316e-06  8.7665351964338986e-06  8.5522632293751278e-06  8.3581978764440970e-06  8.1865955349001934e-06  8.0446284160612716e-06  7.9356915711082696e-06  7.8550414555229796e-06  7.7949944014556557e-06  7.7496557502814744e-06  7.7167099667528870e-06  7.6965154399144226e-06  7.6900729750844587e-06  7.6977880347063838e-06  7.7190473527637865e-06  7.7526365126149675e-06  7.7986359691597764e-06  7.8601297364057201e-06  7.9436002543440545e-06  8.0570665200617021e-06  8.2045160794102379e-06  8.3754510201908826e-06  8.5807260301260093e-06  8.8050299743989407e-06  9.1427297008290491e-06  9.8935817190927720e-06  1.1811997381567941e-05  2.3712477274992039e-05  1.1748747966976872e-02  5.3484173689254851e-02  1.1629844629922040e-01  1.8975136057208639e-01  2.7054240046130118e-01  3.5074398128075707e-01  4.1779141089522021e-01  4.4800534122865632e-01  4.6902812600735289e-01  3.5708486268854395e-01  9.9992171618478631e-01  9.9093964312708649e-01  7.8644763004633544e-01  6.6340422828134593e-01  5.5671400262738557e-01  4.4312104274938219e-01  3.3540044687820553e-01  2.3489863002405642e-01  1.4685527592065936e-01  7.6546285164537528e-02  2.7254533594201831e-02  1.9741754709027426e-04  1.2626791344119542e-05  9.4664397709535894e-06  8.8944355876722023e-06  8.6013549252173692e-06  8.3718782875808384e-06  8.1708557594288698e-06  8.0091027917661461e-06  7.8933529223317775e-06  7.8129444247277542e-06  7.7546268383208387e-06  7.7094398115176955e-06  7.6749399321339155e-06  7.6530643723969810e-06  7.6460260618756031e-06  7.6545682394641343e-06  7.6776610429818426e-06  7.7124202055040324e-06  7.7576423910819947e-06  7.8172234059911043e-06  7.9012071562333914e-06  8.0223871287951314e-06  8.1971509477127555e-06  8.3927889754524332e-06  8.6547757053522539e-06  8.9956220334431910e-06  1.0121543580793691e-05  1.3268775070879414e-05  5.0503418558453448e-05  2.1395061965001280e-02  7.1447268739727815e-02  1.4386666877898424e-01  2.3103456706676898e-01  3.3159979531586059e-01  4.4142311246740651e-01  5.4399277894311970e-01  6.5578213008449737e-01  8.0489684404948758e-01  9.9934802065029815e-01  9.9976665066272430e-01  9.9998426118225014e-01  9.9998625490411885e-01  9.9995105673458096e-01  9.0653220683862346e-01  7.4443534660180732e-01  6.1525774515118603e-01  4.8863489708191443e-01  3.6892499495964681e-01  2.5986315594773657e-01  1.6593315133315442e-01  9.1150113356157386e-02  3.8617858748869936e-02  5.4372115592432307e-03  1.6204433150781409e-05  9.9784566804680389e-06  8.8073569784573471e-06  8.4332244270251990e-06  8.1650176503802611e-06  7.9687579884123885e-06  7.8459500521632728e-06  7.7682622541068188e-06  7.7139344561220587e-06  7.6690941919701506e-06  7.6316002423853658e-06  7.6068729755029731e-06  7.5989304121419856e-06  7.6086921755157497e-06  7.6353645611829137e-06  7.6728135883432671e-06  7.7169287652658826e-06  7.7732361929517258e-06  7.8564206951337305e-06  7.9872212273496700e-06  8.2201532437128201e-06  8.4922310326601162e-06  9.0928504267540763e-06  1.0534115861146492e-05  1.6031246744848176e-05  2.3971330841028138e-03  3.2764027927847300e-02  8.7390298676801523e-02  1.6309861272378592e-01  2.5691610281896443e-01  3.6633967283808788e-01  4.8806267478290988e-01  6.0967467486558657e-01  7.4108595318039172e-01  9.3997298161886367e-01  9.9996766410866844e-01  9.9998775070635559e-01  9.9997841480694605e-01  9.9998959810264842e-01  9.9999307984054420e-01  9.9998613748762377e-01  9.9994666417584765e-01  9.1119991391462063e-01  7.6769320825752674e-01  6.3630285011934729e-01  5.0818563850343179e-01  3.8667496734686235e-01  2.7644607387855796e-01  1.8217732985306134e-01  1.0667702838655783e-01  5.1968937036067371e-02  1.5974092004290862e-02  4.1144082808539551e-05  1.2736770425830946e-05  9.5066760187157293e-06  8.4962487604881027e-06  8.0860788093639405e-06  7.8923864039043821e-06  7.7861354563135019e-06  7.7202085559081227e-06  7.6662220295689340e-06  7.6188815957223178e-06  7.5881849526227980e-06  7.5788489938935159e-06  7.5910853589770911e-06  7.6267917281679785e-06  7.6758084866912745e-06  7.7319270656924857e-06  7.8095396542203103e-06  7.9381378985047634e-06  8.1778920527730138e-06  8.8094391647221660e-06  9.9360997276779991e-06  1.2594356264182089e-05  3.1654233514509364e-05  1.1678834004455681e-02  4.7107796405006959e-02  1.0438266480607310e-01  1.7941881619431979e-01  2.7412141978699767e-01  3.8509922189130802e-01  5.0811751920971349e-01  6.3616705576345911e-01  7.6464551820772009e-01  9.3919029872016491e-01  9.9995844121264754e-01  9.9998654535704379e-01  9.9999306848566771e-01  9.9998877590406432e-01  9.9998898980385320e-01  9.9999360214034039e-01  9.9998940185078655e-01  9.9997585204932826e-01  9.9984310958874101e-01  8.8367042633636117e-01  7.6326189149755796e-01  6.3859134029400277e-01  5.1533739194493300e-01  3.9790713059404881e-01  2.9163201268961775e-01  2.0085374692773433e-01  1.2773372293004098e-01  7.3164680924286865e-02  3.5993225062942003e-02  1.1568406953869504e-02  6.1774684284919914e-05  1.6574294621664001e-05  1.1666347318635704e-05  1.0119231607002112e-05  9.3771943715344962e-06  8.9703134744010005e-06  8.7034635358886004e-06  8.5290948846652943e-06  8.4451809700740428e-06  8.4264974396425036e-06  8.4649460367891092e-06  8.5814776451932032e-06  8.7593670560407222e-06  9.0035372318756478e-06  9.4108642721986538e-06  1.0139852433435195e-05  1.1607260605499031e-05  1.6004579514778431e-05  4.8876782249509354e-05  8.5967198853252637e-03  3.1197772387438840e-02  7.0113985679166935e-02  1.2598495729934447e-01  1.9863031885554838e-01  2.8982313722325015e-01  3.9725039887557284e-01  5.1559913426673143e-01  6.4051448729643723e-01  7.6251240020514199e-01  8.9716997179694014e-01  9.9988885298594976e-01  9.9997569774479567e-01  9.9998902507640208e-01  9.9999344094786180e-01  9.9998965139747775e-01  9.9997991981737555e-01  9.9999041312688131e-01  9.9998605608475055e-01  9.9997491968035834e-01  9.9992574826898373e-01  9.6154647177322239e-01  8.5604232442470185e-01  7.4865636477227648e-01  6.3449459259111307e-01  5.1976277730155751e-01  4.1061599833754958e-01  3.1228911611010596e-01  2.2856583486991344e-01  1.6109194657076895e-01  1.0942961786400972e-01  7.2222732453774988e-02  4.6738829708288389e-02  2.8602280968291691e-02  1.6218869353956056e-02  9.2853623231241352e-03  4.5635474696040998e-03  1.8343984091972010e-03  3.7647029941679345e-04  1.1749072641724338e-04  7.9777589709985859e-05  7.2333821411663582e-05  7.8286289076750875e-05  1.1086579351276943e-04  3.1663254255538654e-04  1.6432762012740833e-03  4.1389432326518439e-03  8.4810168764622648e-03  1.4928319836912471e-02  2.5433498043743615e-02  4.3186661492601183e-02  7.0224726670898227e-02  1.0833949096752302e-01  1.5972645022457527e-01  2.2701923072733571e-01  3.1136269456746962e-01  4.1060007341204507e-01  5.2065898493508345e-01  6.3633579655737071e-01  7.5176295399809268e-01  8.5942102091195349e-01  9.7087933519564085e-01  9.9992267092770648e-01  9.9997230907401591e-01  9.9998485333086151e-01  9.9998978943564454e-01  9.9998487698383587e-01  9.9978491063242836e-01  9.9995686780115578e-01  9.9995443048529775e-01  9.9993728554698713e-01  9.9986306933139124e-01  9.8223242852453241e-01  9.0869486514703823e-01  8.2996597384672977e-01  7.3443559051763785e-01  6.3216629269380264e-01  5.2942571036704122e-01  4.3251228369546774e-01  3.4624702799698265e-01  2.7352538803210902e-01  2.1521404149396114e-01  1.7033152441273583e-01  1.3679263940810885e-01  1.1254720278213907e-01  9.5713656339694655e-02  8.4038914583517185e-02  7.5706237106668850e-02  7.0020418872713389e-02  6.6274357944745191e-02  6.3774940155089443e-02  6.2251047008718849e-02  6.1727257183641068e-02  6.2052763539731548e-02  6.3305347509737306e-02  6.5754191059581524e-02  6.9566400984159671e-02  7.5104305212262829e-02  8.3301783320920614e-02  9.5204818837103064e-02  1.1237804483657213e-01  1.3670066132822556e-01  1.6974254882289447e-01  2.1421893587622134e-01  2.7291390826828776e-01  3.4626880688469508e-01  4.3320011447178225e-01  5.3079910359733506e-01  6.3441148379122858e-01  7.3776530604216983e-01  8.3385032678608362e-01  9.1665050896828271e-01  9.8221410772681417e-01  9.9982889340541803e-01  9.9992867785101724e-01  9.9995436975653251e-01  9.9996271867349018e-01  9.9993977173830273e-01  3.3922054089325110e-01  6.4685482062186439e-01  8.0598930698180127e-01  9.0164137679923728e-01  9.4200854493439723e-01  9.4484586590033315e-01  9.2255143036491849e-01  8.7667647639191926e-01  8.0807551167218739e-01  7.2668834007716399e-01  6.3901854002281167e-01  5.5230222505783177e-01  4.722065516