<?xml version="1.0"?>
<VTKFile type="UnstructuredGrid"  version="0.1"  >
<UnstructuredGrid>
<Piece  NumberOfPoints="2601" NumberOfCells="5000">
<Points>
<DataArray  type="Float64"  NumberOfComponents="3"  format="ascii">0 0 0  0.03 0 0  0.06 0 0  0.09 0 0  0.12 0 0  0.15 0 0  0.18 0 0  0.21 0 0  0.24 0 0  0.27 0 0  0.3 0 0  0.33 0 0  0.36 0 0  0.39 0 0  0.42 0 0  0.45 0 0  0.48 0 0  0.51 0 0  0.54 0 0  0.57 0 0  0.6 0 0  0.63 0 0  0.66 0 0  0.6899999999999999 0 0  0.72 0 0  0.75 0 0  0.78 0 0  0.8100000000000001 0 0  0.84 0 0  0.87 0 0  0.9 0 0  0.93 0 0  0.96 0 0  0.99 0 0  1.02 0 0  1.05 0 0  1.08 0 0  1.11 0 0  1.14 0 0  1.17 0 0  1.2 0 0  1.23 0 0  1.26 0 0  1.29 0 0  1.32 0 0  1.35 0 0  1.38 0 0  1.41 0 0  1.44 0 0  1.47 0 0  1.5 0 0  0 0.02 0  0.03 0.02 0  0.06 0.02 0  0.09 0.02 0  0.12 0.02 0  0.15 0.02 0  0.18 0.02 0  0.21 0.02 0  0.24 0.02 0  0.27 0.02 0  0.3 0.02 0  0.33 0.02 0  0.36 0.02 0  0.39 0.02 0  0.42 0.02 0  0.45 0.02 0  0.48 0.02 0  0.51 0.02 0  0.54 0.02 0  0.57 0.02 0  0.6 0.02 0  0.63 0.02 0  0.66 0.02 0  0.6899999999999999 0.02 0  0.72 0.02 0  0.75 0.02 0  0.78 0.02 0  0.8100000000000001 0.02 0  0.84 0.02 0  0.87 0.02 0  0.9 0.02 0  0.93 0.02 0  0.96 0.02 0  0.99 0.02 0  1.02 0.02 0  1.05 0.02 0  1.08 0.02 0  1.11 0.02 0  1.14 0.02 0  1.17 0.02 0  1.2 0.02 0  1.23 0.02 0  1.26 0.02 0  1.29 0.02 0  1.32 0.02 0  1.35 0.02 0  1.38 0.02 0  1.41 0.02 0  1.44 0.02 0  1.47 0.02 0  1.5 0.02 0  0 0.04 0  0.03 0.04 0  0.06 0.04 0  0.09 0.04 0  0.12 0.04 0  0.15 0.04 0  0.18 0.04 0  0.21 0.04 0  0.24 0.04 0  0.27 0.04 0  0.3 0.04 0  0.33 0.04 0  0.36 0.04 0  0.39 0.04 0  0.42 0.04 0  0.45 0.04 0  0.48 0.04 0  0.51 0.04 0  0.54 0.04 0  0.57 0.04 0  0.6 0.04 0  0.63 0.04 0  0.66 0.04 0  0.6899999999999999 0.04 0  0.72 0.04 0  0.75 0.04 0  0.78 0.04 0  0.8100000000000001 0.04 0  0.84 0.04 0  0.87 0.04 0  0.9 0.04 0  0.93 0.04 0  0.96 0.04 0  0.99 0.04 0  1.02 0.04 0  1.05 0.04 0  1.08 0.04 0  1.11 0.04 0  1.14 0.04 0  1.17 0.04 0  1.2 0.04 0  1.23 0.04 0  1.26 0.04 0  1.29 0.04 0  1.32 0.04 0  1.35 0.04 0  1.38 0.04 0  1.41 0.04 0  1.44 0.04 0  1.47 0.04 0  1.5 0.04 0  0 0.06 0  0.03 0.06 0  0.06 0.06 0  0.09 0.06 0  0.12 0.06 0  0.15 0.06 0  0.18 0.06 0  0.21 0.06 0  0.24 0.06 0  0.27 0.06 0  0.3 0.06 0  0.33 0.06 0  0.36 0.06 0  0.39 0.06 0  0.42 0.06 0  0.45 0.06 0  0.48 0.06 0  0.51 0.06 0  0.54 0.06 0  0.57 0.06 0  0.6 0.06 0  0.63 0.06 0  0.66 0.06 0  0.6899999999999999 0.06 0  0.72 0.06 0  0.75 0.06 0  0.78 0.06 0  0.8100000000000001 0.06 0  0.84 0.06 0  0.87 0.06 0  0.9 0.06 0  0.93 0.06 0  0.96 0.06 0  0.99 0.06 0  1.02 0.06 0  1.05 0.06 0  1.08 0.06 0  1.11 0.06 0  1.14 0.06 0  1.17 0.06 0  1.2 0.06 0  1.23 0.06 0  1.26 0.06 0  1.29 0.06 0  1.32 0.06 0  1.35 0.06 0  1.38 0.06 0  1.41 0.06 0  1.44 0.06 0  1.47 0.06 0  1.5 0.06 0  0 0.08 0  0.03 0.08 0  0.06 0.08 0  0.09 0.08 0  0.12 0.08 0  0.15 0.08 0  0.18 0.08 0  0.21 0.08 0  0.24 0.08 0  0.27 0.08 0  0.3 0.08 0  0.33 0.08 0  0.36 0.08 0  0.39 0.08 0  0.42 0.08 0  0.45 0.08 0  0.48 0.08 0  0.51 0.08 0  0.54 0.08 0  0.57 0.08 0  0.6 0.08 0  0.63 0.08 0  0.66 0.08 0  0.6899999999999999 0.08 0  0.72 0.08 0  0.75 0.08 0  0.78 0.08 0  0.8100000000000001 0.08 0  0.84 0.08 0  0.87 0.08 0  0.9 0.08 0  0.93 0.08 0  0.96 0.08 0  0.99 0.08 0  1.02 0.08 0  1.05 0.08 0  1.08 0.08 0  1.11 0.08 0  1.14 0.08 0  1.17 0.08 0  1.2 0.08 0  1.23 0.08 0  1.26 0.08 0  1.29 0.08 0  1.32 0.08 0  1.35 0.08 0  1.38 0.08 0  1.41 0.08 0  1.44 0.08 0  1.47 0.08 0  1.5 0.08 0  0 0.1 0  0.03 0.1 0  0.06 0.1 0  0.09 0.1 0  0.12 0.1 0  0.15 0.1 0  0.18 0.1 0  0.21 0.1 0  0.24 0.1 0  0.27 0.1 0  0.3 0.1 0  0.33 0.1 0  0.36 0.1 0  0.39 0.1 0  0.42 0.1 0  0.45 0.1 0  0.48 0.1 0  0.51 0.1 0  0.54 0.1 0  0.57 0.1 0  0.6 0.1 0  0.63 0.1 0  0.66 0.1 0  0.6899999999999999 0.1 0  0.72 0.1 0  0.75 0.1 0  0.78 0.1 0  0.8100000000000001 0.1 0  0.84 0.1 0  0.87 0.1 0  0.9 0.1 0  0.93 0.1 0  0.96 0.1 0  0.99 0.1 0  1.02 0.1 0  1.05 0.1 0  1.08 0.1 0  1.11 0.1 0  1.14 0.1 0  1.17 0.1 0  1.2 0.1 0  1.23 0.1 0  1.26 0.1 0  1.29 0.1 0  1.32 0.1 0  1.35 0.1 0  1.38 0.1 0  1.41 0.1 0  1.44 0.1 0  1.47 0.1 0  1.5 0.1 0  0 0.12 0  0.03 0.12 0  0.06 0.12 0  0.09 0.12 0  0.12 0.12 0  0.15 0.12 0  0.18 0.12 0  0.21 0.12 0  0.24 0.12 0  0.27 0.12 0  0.3 0.12 0  0.33 0.12 0  0.36 0.12 0  0.39 0.12 0  0.42 0.12 0  0.45 0.12 0  0.48 0.12 0  0.51 0.12 0  0.54 0.12 0  0.57 0.12 0  0.6 0.12 0  0.63 0.12 0  0.66 0.12 0  0.6899999999999999 0.12 0  0.72 0.12 0  0.75 0.12 0  0.78 0.12 0  0.8100000000000001 0.12 0  0.84 0.12 0  0.87 0.12 0  0.9 0.12 0  0.93 0.12 0  0.96 0.12 0  0.99 0.12 0  1.02 0.12 0  1.05 0.12 0  1.08 0.12 0  1.11 0.12 0  1.14 0.12 0  1.17 0.12 0  1.2 0.12 0  1.23 0.12 0  1.26 0.12 0  1.29 0.12 0  1.32 0.12 0  1.35 0.12 0  1.38 0.12 0  1.41 0.12 0  1.44 0.12 0  1.47 0.12 0  1.5 0.12 0  0 0.14 0  0.03 0.14 0  0.06 0.14 0  0.09 0.14 0  0.12 0.14 0  0.15 0.14 0  0.18 0.14 0  0.21 0.14 0  0.24 0.14 0  0.27 0.14 0  0.3 0.14 0  0.33 0.14 0  0.36 0.14 0  0.39 0.14 0  0.42 0.14 0  0.45 0.14 0  0.48 0.14 0  0.51 0.14 0  0.54 0.14 0  0.57 0.14 0  0.6 0.14 0  0.63 0.14 0  0.66 0.14 0  0.6899999999999999 0.14 0  0.72 0.14 0  0.75 0.14 0  0.78 0.14 0  0.8100000000000001 0.14 0  0.84 0.14 0  0.87 0.14 0  0.9 0.14 0  0.93 0.14 0  0.96 0.14 0  0.99 0.14 0  1.02 0.14 0  1.05 0.14 0  1.08 0.14 0  1.11 0.14 0  1.14 0.14 0  1.17 0.14 0  1.2 0.14 0  1.23 0.14 0  1.26 0.14 0  1.29 0.14 0  1.32 0.14 0  1.35 0.14 0  1.38 0.14 0  1.41 0.14 0  1.44 0.14 0  1.47 0.14 0  1.5 0.14 0  0 0.16 0  0.03 0.16 0  0.06 0.16 0  0.09 0.16 0  0.12 0.16 0  0.15 0.16 0  0.18 0.16 0  0.21 0.16 0  0.24 0.16 0  0.27 0.16 0  0.3 0.16 0  0.33 0.16 0  0.36 0.16 0  0.39 0.16 0  0.42 0.16 0  0.45 0.16 0  0.48 0.16 0  0.51 0.16 0  0.54 0.16 0  0.57 0.16 0  0.6 0.16 0  0.63 0.16 0  0.66 0.16 0  0.6899999999999999 0.16 0  0.72 0.16 0  0.75 0.16 0  0.78 0.16 0  0.8100000000000001 0.16 0  0.84 0.16 0  0.87 0.16 0  0.9 0.16 0  0.93 0.16 0  0.96 0.16 0  0.99 0.16 0  1.02 0.16 0  1.05 0.16 0  1.08 0.16 0  1.11 0.16 0  1.14 0.16 0  1.17 0.16 0  1.2 0.16 0  1.23 0.16 0  1.26 0.16 0  1.29 0.16 0  1.32 0.16 0  1.35 0.16 0  1.38 0.16 0  1.41 0.16 0  1.44 0.16 0  1.47 0.16 0  1.5 0.16 0  0 0.18 0  0.03 0.18 0  0.06 0.18 0  0.09 0.18 0  0.12 0.18 0  0.15 0.18 0  0.18 0.18 0  0.21 0.18 0  0.24 0.18 0  0.27 0.18 0  0.3 0.18 0  0.33 0.18 0  0.36 0.18 0  0.39 0.18 0  0.42 0.18 0  0.45 0.18 0  0.48 0.18 0  0.51 0.18 0  0.54 0.18 0  0.57 0.18 0  0.6 0.18 0  0.63 0.18 0  0.66 0.18 0  0.6899999999999999 0.18 0  0.72 0.18 0  0.75 0.18 0  0.78 0.18 0  0.8100000000000001 0.18 0  0.84 0.18 0  0.87 0.18 0  0.9 0.18 0  0.93 0.18 0  0.96 0.18 0  0.99 0.18 0  1.02 0.18 0  1.05 0.18 0  1.08 0.18 0  1.11 0.18 0  1.14 0.18 0  1.17 0.18 0  1.2 0.18 0  1.23 0.18 0  1.26 0.18 0  1.29 0.18 0  1.32 0.18 0  1.35 0.18 0  1.38 0.18 0  1.41 0.18 0  1.44 0.18 0  1.47 0.18 0  1.5 0.18 0  0 0.2 0  0.03 0.2 0  0.06 0.2 0  0.09 0.2 0  0.12 0.2 0  0.15 0.2 0  0.18 0.2 0  0.21 0.2 0  0.24 0.2 0  0.27 0.2 0  0.3 0.2 0  0.33 0.2 0  0.36 0.2 0  0.39 0.2 0  0.42 0.2 0  0.45 0.2 0  0.48 0.2 0  0.51 0.2 0  0.54 0.2 0  0.57 0.2 0  0.6 0.2 0  0.63 0.2 0  0.66 0.2 0  0.6899999999999999 0.2 0  0.72 0.2 0  0.75 0.2 0  0.78 0.2 0  0.8100000000000001 0.2 0  0.84 0.2 0  0.87 0.2 0  0.9 0.2 0  0.93 0.2 0  0.96 0.2 0  0.99 0.2 0  1.02 0.2 0  1.05 0.2 0  1.08 0.2 0  1.11 0.2 0  1.14 0.2 0  1.17 0.2 0  1.2 0.2 0  1.23 0.2 0  1.26 0.2 0  1.29 0.2 0  1.32 0.2 0  1.35 0.2 0  1.38 0.2 0  1.41 0.2 0  1.44 0.2 0  1.47 0.2 0  1.5 0.2 0  0 0.22 0  0.03 0.22 0  0.06 0.22 0  0.09 0.22 0  0.12 0.22 0  0.15 0.22 0  0.18 0.22 0  0.21 0.22 0  0.24 0.22 0  0.27 0.22 0  0.3 0.22 0  0.33 0.22 0  0.36 0.22 0  0.39 0.22 0  0.42 0.22 0  0.45 0.22 0  0.48 0.22 0  0.51 0.22 0  0.54 0.22 0  0.57 0.22 0  0.6 0.22 0  0.63 0.22 0  0.66 0.22 0  0.6899999999999999 0.22 0  0.72 0.22 0  0.75 0.22 0  0.78 0.22 0  0.8100000000000001 0.22 0  0.84 0.22 0  0.87 0.22 0  0.9 0.22 0  0.93 0.22 0  0.96 0.22 0  0.99 0.22 0  1.02 0.22 0  1.05 0.22 0  1.08 0.22 0  1.11 0.22 0  1.14 0.22 0  1.17 0.22 0  1.2 0.22 0  1.23 0.22 0  1.26 0.22 0  1.29 0.22 0  1.32 0.22 0  1.35 0.22 0  1.38 0.22 0  1.41 0.22 0  1.44 0.22 0  1.47 0.22 0  1.5 0.22 0  0 0.24 0  0.03 0.24 0  0.06 0.24 0  0.09 0.24 0  0.12 0.24 0  0.15 0.24 0  0.18 0.24 0  0.21 0.24 0  0.24 0.24 0  0.27 0.24 0  0.3 0.24 0  0.33 0.24 0  0.36 0.24 0  0.39 0.24 0  0.42 0.24 0  0.45 0.24 0  0.48 0.24 0  0.51 0.24 0  0.54 0.24 0  0.57 0.24 0  0.6 0.24 0  0.63 0.24 0  0.66 0.24 0  0.6899999999999999 0.24 0  0.72 0.24 0  0.75 0.24 0  0.78 0.24 0  0.8100000000000001 0.24 0  0.84 0.24 0  0.87 0.24 0  0.9 0.24 0  0.93 0.24 0  0.96 0.24 0  0.99 0.24 0  1.02 0.24 0  1.05 0.24 0  1.08 0.24 0  1.11 0.24 0  1.14 0.24 0  1.17 0.24 0  1.2 0.24 0  1.23 0.24 0  1.26 0.24 0  1.29 0.24 0  1.32 0.24 0  1.35 0.24 0  1.38 0.24 0  1.41 0.24 0  1.44 0.24 0  1.47 0.24 0  1.5 0.24 0  0 0.26 0  0.03 0.26 0  0.06 0.26 0  0.09 0.26 0  0.12 0.26 0  0.15 0.26 0  0.18 0.26 0  0.21 0.26 0  0.24 0.26 0  0.27 0.26 0  0.3 0.26 0  0.33 0.26 0  0.36 0.26 0  0.39 0.26 0  0.42 0.26 0  0.45 0.26 0  0.48 0.26 0  0.51 0.26 0  0.54 0.26 0  0.57 0.26 0  0.6 0.26 0  0.63 0.26 0  0.66 0.26 0  0.6899999999999999 0.26 0  0.72 0.26 0  0.75 0.26 0  0.78 0.26 0  0.8100000000000001 0.26 0  0.84 0.26 0  0.87 0.26 0  0.9 0.26 0  0.93 0.26 0  0.96 0.26 0  0.99 0.26 0  1.02 0.26 0  1.05 0.26 0  1.08 0.26 0  1.11 0.26 0  1.14 0.26 0  1.17 0.26 0  1.2 0.26 0  1.23 0.26 0  1.26 0.26 0  1.29 0.26 0  1.32 0.26 0  1.35 0.26 0  1.38 0.26 0  1.41 0.26 0  1.44 0.26 0  1.47 0.26 0  1.5 0.26 0  0 0.28 0  0.03 0.28 0  0.06 0.28 0  0.09 0.28 0  0.12 0.28 0  0.15 0.28 0  0.18 0.28 0  0.21 0.28 0  0.24 0.28 0  0.27 0.28 0  0.3 0.28 0  0.33 0.28 0  0.36 0.28 0  0.39 0.28 0  0.42 0.28 0  0.45 0.28 0  0.48 0.28 0  0.51 0.28 0  0.54 0.28 0  0.57 0.28 0  0.6 0.28 0  0.63 0.28 0  0.66 0.28 0  0.6899999999999999 0.28 0  0.72 0.28 0  0.75 0.28 0  0.78 0.28 0  0.8100000000000001 0.28 0  0.84 0.28 0  0.87 0.28 0  0.9 0.28 0  0.93 0.28 0  0.96 0.28 0  0.99 0.28 0  1.02 0.28
[...]
<PointData  Scalars="ControlVisualisation"> 
<DataArray  type="Float64"  Name="ControlVisualisation"  format="ascii">1.1514210444300813e-03  7.6865078235332780e-04  7.7141802611524544e-04  7.7710680922868868e-04  7.8586435099816689e-04  7.9673186186888329e-04  8.0819119173222449e-04  8.1883698146582840e-04  8.2773699963578054e-04  8.3447902339514157e-04  8.3904082314132148e-04  8.4163321675292274e-04  8.4258379852398678e-04  8.4226018358009736e-04  8.4102061426858125e-04  8.3918550352751026e-04  8.3702442046535526e-04  8.3475290348496330e-04  8.3253499675967426e-04  8.3048915928047196e-04  8.2869613422651193e-04  8.2720760538308345e-04  8.2605451084656611e-04  8.2525409579674671e-04  8.2481520415878906e-04  8.2474173546853561e-04  8.2503443545284977e-04  8.2569119910252346e-04  8.2670592001621074e-04  8.2806574483622341e-04  8.2974652505593246e-04  8.3170641499139323e-04  8.3387795178559837e-04  8.3615936407321000e-04  8.3840611040373681e-04  8.4042372215468346e-04  8.4196330076655049e-04  8.4272200152376014e-04  8.4235241461774117e-04  8.4048627882695620e-04  8.3677479316927579e-04  8.3095189267990192e-04  8.2293024122775927e-04  8.1294511510306827e-04  8.0170633885474473e-04  7.9041592776664263e-04  7.8057345989230339e-04  7.7349466892076394e-04  7.6957453636466284e-04  7.6803386176761072e-04  2.2998971215827976e-03  7.6822178230994201e-04  3.8493085204241792e-04  3.8768164430672089e-04  3.9379674198281945e-04  4.0386239263949075e-04  4.1721959286077786e-04  4.3228536196041219e-04  4.4721081404116469e-04  4.6043842887901962e-04  4.7099398915355654e-04  4.7849585944123769e-04  4.8301765801166976e-04  4.8492867774560310e-04  4.8475147557884693e-04  4.8304808248725013e-04  4.8034359754071162e-04  4.7708574732547096e-04  4.7363069204801173e-04  4.7024485869715405e-04  4.6711558007716332e-04  4.6436597495882868e-04  4.6207099524998803e-04  4.6027239098727165e-04  4.5899108902227822e-04  4.5823632361783549e-04  4.5801159021381335e-04  4.5831787298768428e-04  4.5915457958459064e-04  4.6051833187036071e-04  4.6239939261389837e-04  4.6477524857304144e-04  4.6760092750238255e-04  4.7079610388554198e-04  4.7422980808911505e-04  4.7770428435276195e-04  4.8094004259568871e-04  4.8356535086637825e-04  4.8511576757393100e-04  4.8505334455192436e-04  4.8281507710493435e-04  4.7789506572716161e-04  4.6996161889471805e-04  4.5900023237329909e-04  4.4546871695114404e-04  4.3043332176374263e-04  4.1549489559891890e-04  4.0244861828674843e-04  3.9281699957220646e-04  3.8718119580165078e-04  3.8476505059904901e-04  7.6794683986334839e-04  7.6905404021265691e-04  3.8579563928839314e-04  3.8938364603471583e-04  3.9722137895400182e-04  4.0987203852278249e-04  4.2641223919554145e-04  4.4497667966488636e-04  4.6336870789679026e-04  4.7968543472818719e-04  4.9271101274470889e-04  5.0193072598684588e-04  5.0738653567116538e-04  5.0951696249783166e-04  5.0898529074295228e-04  5.0652093785302169e-04  5.0280888405673818e-04  4.9843163357679685e-04  4.9384894587827140e-04  4.8940012446891344e-04  4.8531870537866243e-04  4.8175321321789995e-04  4.7878961449114972e-04  4.7647212547857661e-04  4.7482010981479716e-04  4.7384018220861105e-04  4.7353383928466330e-04  4.7390149577289424e-04  4.7494369751959544e-04  4.7665977959681776e-04  4.7904361294978372e-04  4.8207558509617333e-04  4.8570994559734524e-04  4.8985736704611237e-04  4.9436394708615846e-04  4.9898879225457565e-04  5.0338288258089045e-04  5.0707390375784799e-04  5.0946374464185375e-04  5.0985357433500468e-04  5.0750807366036778e-04  5.0178040373216127e-04  4.9226419245232899e-04  4.7895822846200618e-04  4.6239655155482857e-04  4.4388129506717981e-04  4.2539074745800699e-04  4.0898620545195755e-04  3.9647783643163230e-04  3.8889950185854843e-04  3.8559570023832785e-04  7.6854912834180950e-04  7.6985829330743401e-04  3.8703125981170652e-04  3.9204868392948448e-04  4.0188449887705629e-04  4.1635288642859506e-04  4.3406792694978055e-04  4.5319620720532235e-04  4.7154376908254791e-04  4.8732945872839560e-04  4.9959438198095448e-04  5.0798517597867951e-04  5.1260182143741625e-04  5.1392017424471258e-04  5.1263731453349661e-04  5.0950336414544201e-04  5.0521109444661685e-04  5.0034388363925724e-04  4.9535897859199465e-04  4.9059034321587960e-04  4.8626311128805734e-04  4.8251483861652607e-04  4.7941953783220415e-04  4.7701044956713232e-04  4.7529832851373621e-04  4.7428399290331592e-04  4.7396575370627824e-04  4.7434311042618996e-04  4.7541784338487458e-04  4.7719288345860253e-04  4.7966846260035748e-04  4.8283426525049032e-04  4.8665616145158807e-04  4.9105718524690943e-04  4.9589475950248074e-04  5.0093700887292195e-04  5.0584204437062051e-04  5.1014235893575926e-04  5.1323666895502606e-04  5.1441054547598836e-04  5.1290197210708381e-04  5.0805730090649473e-04  4.9940721519547786e-04  4.8688271661640300e-04  4.7079541109075446e-04  4.5221467939226157e-04  4.3313693310697595e-04  4.1547219078390382e-04  4.0091444799668081e-04  3.9115977227667119e-04  3.8657603384565330e-04  7.6938888777777444e-04  7.6971152396050646e-04  3.8857555873925625e-04  3.9744571616928584e-04  4.1166261480838788e-04  4.2864504287972078e-04  4.4703253334802637e-04  4.6604796788969984e-04  4.8333917452357739e-04  4.9749621318391664e-04  5.0810013642609670e-04  5.1493571711554978e-04  5.1810234492026075e-04  5.1810882743088865e-04  5.1568989340275548e-04  5.1160375147384085e-04  5.0653064570211899e-04  5.0103656135383836e-04  4.9556213644350695e-04  4.9042481705391903e-04  4.8583144340090474e-04  4.8189917230874370e-04  4.7868148432257169e-04  4.7619383786951143e-04  4.7443379839355387e-04  4.7339376782791948e-04  4.7306762021577802e-04  4.7345357691267544e-04  4.7455501372160142e-04  4.7637974087104255e-04  4.7893708128091329e-04  4.8223079047954038e-04  4.8624526748144607e-04  4.9092418021985695e-04  4.9614485169742538e-04  5.0169414796016692e-04  5.0725007997182907e-04  5.1236214576146598e-04  5.1644434431181736e-04  5.1879010466608492e-04  5.1862984485681347e-04  5.1526630018687320e-04  5.0814265717654338e-04  4.9738252328182108e-04  4.8309539571004964e-04  4.6536109343181352e-04  4.4640191922153995e-04  4.2820664657752968e-04  4.1075454698775754e-04  3.9603655943129854e-04  3.8741311375778024e-04  7.6969158713293946e-04  7.6991682292438591e-04  3.9271266591294775e-04  4.1923298258195440e-04  4.5633761839491749e-04  4.7607964032410349e-04  4.8399140121971340e-04  4.9249313252201256e-04  5.0243171187002171e-04  5.1201903874265996e-04  5.1969706712105530e-04  5.2425001668670549e-04  5.2535603915935885e-04  5.2353173074652594e-04  5.1956260331279935e-04  5.1419999356522588e-04  5.0809130044580898e-04  5.0177210971431049e-04  4.9565896488741037e-04  4.9004691646081214e-04  4.8511769824443956e-04  4.8095929981462727e-04  4.7759535899924909e-04  4.7501599276142230e-04  4.7320081914586665e-04  4.7213142598142991e-04  4.7179626062076902e-04  4.7219199674660480e-04  4.7332384568452728e-04  4.7520552077989791e-04  4.7785803035641915e-04  4.8130441652162410e-04  4.8555560686813559e-04  4.9058523904609973e-04  4.9629824953049799e-04  5.0250761243867802e-04  5.0891479872374032e-04  5.1509785991957061e-04  5.2053069450067318e-04  5.2449431924015604e-04  5.2617408783423969e-04  5.2480963336253256e-04  5.2057232780603542e-04  5.1390353636599569e-04  5.0670994671077557e-04  4.9869702782290130e-04  4.9268674736592424e-04  4.8226897511627744e-04  4.4657112406542931e-04  4.0859671877793382e-04  3.8877815667831073e-04  7.6905563312834970e-04  7.9489836676092170e-04  4.2448538728657759e-04  5.8318699797228518e-04  1.0029522673953117e-03  1.2819862321665372e-03  9.4060840439732737e-04  6.8028380993148555e-04  5.6922821417764943e-04  5.3889364113288141e-04  5.3617537620873231e-04  5.3650677888556354e-04  5.3461240170511108e-04  5.3031789844338218e-04  5.2433926620390654e-04  5.1735883574523483e-04  5.0994798592910297e-04  5.0259623093892500e-04  4.9568942890701689e-04  4.8949558219065631e-04  4.8416483624384715e-04  4.7974515862977230e-04  4.7621794128084523e-04  4.7353854136895728e-04  4.7166369555006469e-04  4.7056240946405945e-04  4.7021729776935934e-04  4.7062340508455865e-04  4.7178775643241469e-04  4.7373033348569853e-04  4.7648576597707952e-04  4.8010206962094919e-04  4.8462716238228070e-04  4.9007765243022530e-04  4.9639336097181421e-04  5.0341885769904292e-04  5.1088235964262844e-04  5.1843635268776392e-04  5.2560832786486416e-04  5.3160382187963223e-04  5.3600427614047808e-04  5.3828374165708316e-04  5.4144047917188459e-04  5.5207494993799995e-04  5.9577054130949833e-04  6.9133882837520892e-04  9.0632816036775019e-04  1.2801841318505322e-03  1.0581167088810149e-03  6.1583977237255163e-04  4.1641348743181071e-04  7.7223775566616587e-04  8.6309971246810327e-04  9.1958381853259616e-04  3.1490663467348828e-02  5.9082119204319217e-02  5.4666078308013934e-02  3.4778166571525784e-02  1.3281978511210574e-02  1.7355779462316131e-03  7.2438357498507810e-04  5.8121680223884281e-04  5.5525360653999316e-04  5.4650131887114142e-04  5.3854740539067286e-04  5.3001239627113023e-04  5.2105638610427019e-04  5.1206477648065832e-04  5.0346448769833659e-04  4.9560527101479479e-04  4.8872506089157951e-04  4.8293759635750544e-04  4.7823614804540877e-04  4.7454169695620226e-04  4.7176264742820705e-04  4.6982831097372641e-04  4.6869475816373901e-04  4.6833937096202658e-04  4.6875577209721652e-04  4.6995238235399497e-04  4.7195466786189834e-04  4.7481129311858556e-04  4.7860096692084957e-04  4.8342266176910404e-04  4.8935507709560889e-04  4.9638168925818064e-04  5.0438526909879109e-04  5.1313244213613697e-04  5.2235180795461716e-04  5.3157268709020094e-04  5.4077099497588964e-04  5.5030147129000041e-04  5.6312926667783714e-04  6.0937909741700129e-04  7.4725725532223002e-04  1.4773517364243709e-03  1.0463775945488347e-02  3.0602152977959911e-02  5.2630968699935339e-02  5.8633990898304747e-02  4.0543505005856594e-02  9.2999168735717435e-04  8.5132809665426146e-04  1.8503178409419784e-03  9.0771202916219415e-02  2.1173864157395444e-01  2.1627094063652264e-01  1.8248719139329520e-01  1.3451820465392988e-01  8.4373028170758577e-02  4.0403647643484766e-02  8.8609286771588816e-03  1.0379648388471384e-03  6.3350728828575557e-04  5.6741815088890237e-04  5.4906726497540347e-04  5.3667154304340556e-04  5.2529093527657470e-04  5.1440236026730477e-04  5.0432250092210563e-04  4.9534388837172599e-04  4.8767218396312639e-04  4.8138717038225361e-04  4.7640508408816368e-04  4.7255718365573235e-04  4.6968902301415435e-04  4.6769994927272712e-04  4.6653555047554521e-04  4.6617007992688495e-04  4.6659625883154523e-04  4.6782298828744831e-04  4.6987881332905397e-04  4.7282362359806168e-04  4.7677045650282507e-04  4.8188965497596804e-04  4.8835580804918225e-04  4.9621765182197516e-04  5.0535821586015920e-04  5.1563158280914633e-04  5.2679017619161877e-04  5.3915214501652395e-04  5.5487860495926516e-04  5.8276428999043243e-04  6.6437861900051694e-04  1.0177152284827453e-03  5.8831217492824085e-03  3.3035231823484737e-02  7.9228554503375140e-02  1.3071040333596723e-01  1.7792088573685816e-01  2.1055546928327609e-01  2.0922671082520072e-01  1.1380800071917731e-01  1.3676175890137158e-03  4.0417233681476428e-01  4.6461046675575063e-01  4.9622288205172083e-01  4.2433006214547331e-01  3.5656032278041805e-01  2.7719788510824278e-01  1.9659866579096247e-01  1.2254710727467885e-01  6.4317514988530389e-02  2.1536725694192634e-02  1.7730159408678313e-03  6.9819334895288281e-04  5.7405763870750062e-04  5.4603644492832537e-04  5.3036559221846370e-04  5.1697146921417616e-04  5.0513026362383794e-04  4.9484084788615698e-04  4.8625850151841506e-04  4.7945467110113672e-04  4.7422583283040527e-04  4.7026146388522432e-04  4.6732484812135930e-04  4.6528871959940481e-04  4.6409561165710223e-04  4.6372054293168874e-04  4.6415601041495201e-04  4.6541024612524684e-04  4.6751064537453558e-04  4.7051932007771523e-04  4.7458095697140918e-04  4.7996914821873699e-04  4.8700676548669709e-04  4.9587035107253241e-04  5.0627023568549940e-04  5.1868324492574118e-04  5.3264785943634037e-04  5.5249883177687883e-04  5.9893799435766285e-04  7.3091830927367969e-04  1.5016126461211156e-03  1.5829768906637752e-02  5.7855059314752842e-02  1.1903219213216341e-01  1.9316053338235475e-01  2.7320394452063701e-01  3.5258318605656513e-01  4.1865253560073951e-01  4.4966920235808183e-01  4.7131720411642108e-01  3.5728036023415838e-01  9.9557652123754525e-01  9.7730074487597662e-01  7.8816647784109373e-01  6.6353914823408155e-01  5.5758468114504123e-01  4.4466408431956533e-01  3.3781950272174627e-01  2.3806756948663124e-01  1.5046610355166298e-01  8.1104986255659470e-02  3.0086153122999757e-02  3.7858308952340479e-03  7.9719027059271558e-04  5.8449073183742953e-04  5.4042669163496912e-04  5.2052004867312891e-04  5.0608360399192120e-04  4.9411738962235659e-04  4.8441709650585898e-04  4.7709270209331142e-04  4.7169719872474611e-04  4.6767856380104385e-04  4.6469907885774884e-04  4.6262168821525191e-04  4.6140063821119808e-04  4.6101660491853352e-04  4.6146217784424274e-04  4.6274399085902607e-04  4.6488314226898124e-04  4.6792748989978408e-04  4.7203386361523701e-04  4.7762554616278370e-04  4.8526686636237890e-04  4.9557606409381236e-04  5.0769306706319672e-04  5.2427495404673270e-04  5.4820621009324302e-04  6.1561956648727373e-04  8.2541659359781320e-04  2.6768507413629157e-03  2.6052559532846017e-02  7.5503280149025701e-02  1.4813002431549072e-01  2.3455627839292847e-01  3.3401702538763411e-01  4.4297493430017232e-01  5.4513858890638767e-01  6.5660479112608217e-01  8.0641926044033130e-01  9.8551345148882896e-01  9.8953778736545073e-01  9.9905800821429336e-01  9.9918377094244526e-01  9.9720137247253038e-01  9.0461195017458940e-01  7.4465259259315775e-01  6.1611065842460044e-01  4.9009549312750361e-01  3.7140006554815513e-01  2.6332985404855852e-01  1.6979229461083106e-01  9.4541000281127358e-02  4.1315809279274390e-02  8.6372438556138638e-03  1.0607991676909176e-03  6.2377232953675387e-04  5.3810271614198170e-04  5.1100800171927530e-04  4.9455019446844922e-04  4.8270677720630936e-04  4.7467007184933335e-04  4.6914049531546871e-04  4.6508810468701318e-04  4.6204901267710895e-04  4.5990789395757568e-04  4.5864777910041457e-04  4.5825505204326214e-04  4.5872090602858790e-04  4.6005243982435323e-04  4.6227107638216876e-04  4.6539940420847146e-04  4.6955311462442914e-04  4.7541373549401253e-04  4.8406110230737285e-04  4.9764916306346461e-04  5.1591589052803969e-04  5.5723779152470746e-04  6.5293113901846150e-04  1.0220587612856920e-03  6.6425609701343648e-03  3.6561687966309438e-02  9.1016196474769592e-02  1.6755695258810441e-01  2.6035754599765421e-01  3.6889608225057002e-01  4.8968062821200736e-01  6.1075252162307081e-01  7.4236726980483070e-01  9.3621084174672753e-01  9.9808902888889850e-01  9.9927001798462933e-01  9.9872600763777830e-01  9.9937538411366778e-01  9.9958417364437957e-01  9.9917092921868733e-01  9.9694019086915209e-01  9.0980971947823241e-01  7.6751535137104254e-01  6.3723169495162224e-01  5.0974565078190315e-01  3.8918569949985959e-01  2.7998060966197325e-01  1.8601034730161170e-01  1.1031680844270375e-01  5.6958259096950389e-02  1.9291111593248887e-02  2.4428831788128663e-03  8.1145649116459359e-04  5.9007371642574586e-04  5.2181254315744304e-04  4.9384029523908053e-04  4.8005320911357100e-04  4.7203555828099130e-04  4.6665681061887175e-04  4.6280503403068446e-04  4.6018900828462045e-04  4.5870472103893195e-04  4.5827471386874471e-04  4.5887362916489016e-04  4.6054552265311391e-04  4.6342278771481428e-04  4.6768164934288161e-04  4.7364648195751734e-04  4.8317254446987058e-04  5.0043877066892133e-04  5.3897410289139029e-04  6.1274362183534473e-04  8.0576362445004791e-04  1.9733786932004125e-03  1.4550702785450800e-02  5.2151011487336106e-02  1.0859664479592246e-01  1.8385464101398835e-01  2.7753808358014664e-01  3.8776157132748090e-01  5.1001404284030971e-01  6.3703644195221121e-01  7.6567476652598143e-01  9.3556849580265711e-01  9.9756718234353225e-01  9.9919538417915121e-01  9.9958362773592713e-01  9.9932644724598829e-01  9.9933904757612380e-01  9.9961520546868188e-01  9.9936306494779314e-01  9.9856574251813068e-01  9.9229683292815984e-01  8.8326234858525965e-01  7.6319760987340313e-01  6.3962629768038648e-01  5.1699693795076695e-01  4.0039951837757087e-01  2.9514118110936188e-01  2.0494485596088274e-01  1.3193319444871487e-01  7.7580803047045677e-02  3.9963287802112828e-02  1.5293299391936917e-02  2.9189712742810764e-03  1.0686239410365049e-03  7.4173068946331794e-04  6.3236285211259254e-04  5.8117752218953716e-04  5.5253001966818578e-04  5.3541712276591175e-04  5.2551796991110475e-04  5.2052502842752822e-04  5.1923983516890670e-04  5.2133032502881980e-04  5.2717071059585232e-04  5.3802618528078848e-04  5.5596835148484611e-04  5.8416150115663337e-04  6.3472784111439761e-04  7.3777391356470354e-04  1.0305443912677725e-03  2.5500544890615620e-03  1.2845660953426215e-02  3.5423405719803173e-02  7.3725302672799448e-02  1.3069890492726047e-01  2.0331221942111560e-01  2.9336123165380823e-01  3.9992145147767150e-01  5.1778033310299798e-01  6.4151516312437218e-01  7.6324151202184609e-01  8.9649447534364490e-01  9.9402601270272806e-01  9.9855503912569765e-01  9.9934082678730440e-01  9.9960559411798522e-01  9.9937854318047015e-01  9.9880374446523690e-01  9.9942483273007099e-01  9.9916291855944428e-01  9.9850441532643586e-01  9.9588027870835560e-01  9.5610099059878995e-01  8.5500583191357127e-01  7.4908120559999980e-01  6.3560620946949653e-01  5.2149512526342068e-01  4.1309234366368075e-01  3.1578858074052968e-01  2.3283244653589230e-01  1.6539816072774832e-01  1.1338914078902114e-01  7.6438102699797894e-02  5.0752044582877874e-02  3.0121103198674382e-02  2.0197136371122748e-02  1.2664270763358012e-02  7.9766853566036276e-03  5.5833968419846877e-03  4.1579624933187152e-03  3.4270883234586219e-03  3.0919346719544588e-03  2.9891885531631393e-03  3.0749658915434955e-03  3.3773272532108848e-03  4.0382978279977751e-03  5.4344780836504038e-03  7.7686835303038245e-03  1.1531309598281934e-02  1.9248742620274088e-02  2.7774750166764946e-02  4.7169036129075678e-02  7.4931660592943053e-02  1.1262557200337733e-01  1.6440113680377011e-01  2.3134377590480437e-01  3.1488811276801870e-01  4.1336959218572555e-01  5.2287302513602507e-01  6.3788789924048395e-01  7.5191070943296501e-01  8.6002384321377567e-01  9.6328742291210234e-01  9.9569064537223606e-01  9.9835395016583395e-01  9.9909096876261827e-01  9.9938763656719287e-01  9.9909399347957806e-01  9.8963481362884465e-01  9.9749187500305891e-01  9.9731775834224912e-01  9.9637286056478258e-01  9.9299862297754271e-01  9.7103037819566296e-01  9.0739438708423548e-01  8.2907035885629210e-01  7.3498449785277076e-01  6.3339320559076251e-01  5.3117656686765102e-01  4.3492360218838766e-01  3.4953863964044757e-01  2.7756512742892353e-01  2.1949612535881941e-01  1.7448484295319225e-01  1.4058680970961923e-01  1.1538838843876048e-01  9.8338295531744266e-02  8.7491892488696071e-02  7.9278567310484729e-02  7.3558067057135024e-02  6.9541933699596284e-02  6.7024677603136448e-02  6.5752945120657560e-02  6.5330699429732159e-02  6.5672937239975263e-02  6.6880146478264915e-02  6.9134108393242646e-02  7.2926568528124805e-02  7.8733007795830007e-02  8.6659350080733138e-02  9.8386942989728068e-02  1.1534230855660556e-01  1.4017151774241016e-01  1.7444543909339816e-01  2.1884691934118999e-01  2.7681526068505868e-01  3.4952699098434797e-01  4.3591700555595664e-01  5.3305638255004495e-01  6.3607129174195365e-01  7.3844933550337022e-01  8.3342741671847276e-01  9.1446903624599929e-01  9.7138787924782644e-01  9.9189910871074460e-01  9.9591740960129427e-01  9.9730882536533561e-01  9.9780227138725286e-01  9.9648083135715837e-01  3.4002834852374092e-01  6.4716739089484077e-01  8.0380653369446831e-01  8.9808048347799885e-01  9.3636348670461989e-01  9.4042533553050356e-01  9.1948621172970046e-01  8.7450373959454675e-01  8.0779206685530291e-01  7.2725763231550444e-01  6.4023780669981367e-01  5.5394270683847968e-01  4.743062096