<?xml version="1.0"?>
<VTKFile type="UnstructuredGrid"  version="0.1"  >
<UnstructuredGrid>
<Piece  NumberOfPoints="2601" NumberOfCells="5000">
<Points>
<DataArray  type="Float64"  NumberOfComponents="3"  format="ascii">0 0 0  0.03 0 0  0.06 0 0  0.09 0 0  0.12 0 0  0.15 0 0  0.18 0 0  0.21 0 0  0.24 0 0  0.27 0 0  0.3 0 0  0.33 0 0  0.36 0 0  0.39 0 0  0.42 0 0  0.45 0 0  0.48 0 0  0.51 0 0  0.54 0 0  0.57 0 0  0.6 0 0  0.63 0 0  0.66 0 0  0.6899999999999999 0 0  0.72 0 0  0.75 0 0  0.78 0 0  0.8100000000000001 0 0  0.84 0 0  0.87 0 0  0.9 0 0  0.93 0 0  0.96 0 0  0.99 0 0  1.02 0 0  1.05 0 0  1.08 0 0  1.11 0 0  1.14 0 0  1.17 0 0  1.2 0 0  1.23 0 0  1.26 0 0  1.29 0 0  1.32 0 0  1.35 0 0  1.38 0 0  1.41 0 0  1.44 0 0  1.47 0 0  1.5 0 0  0 0.02 0  0.03 0.02 0  0.06 0.02 0  0.09 0.02 0  0.12 0.02 0  0.15 0.02 0  0.18 0.02 0  0.21 0.02 0  0.24 0.02 0  0.27 0.02 0  0.3 0.02 0  0.33 0.02 0  0.36 0.02 0  0.39 0.02 0  0.42 0.02 0  0.45 0.02 0  0.48 0.02 0  0.51 0.02 0  0.54 0.02 0  0.57 0.02 0  0.6 0.02 0  0.63 0.02 0  0.66 0.02 0  0.6899999999999999 0.02 0  0.72 0.02 0  0.75 0.02 0  0.78 0.02 0  0.8100000000000001 0.02 0  0.84 0.02 0  0.87 0.02 0  0.9 0.02 0  0.93 0.02 0  0.96 0.02 0  0.99 0.02 0  1.02 0.02 0  1.05 0.02 0  1.08 0.02 0  1.11 0.02 0  1.14 0.02 0  1.17 0.02 0  1.2 0.02 0  1.23 0.02 0  1.26 0.02 0  1.29 0.02 0  1.32 0.02 0  1.35 0.02 0  1.38 0.02 0  1.41 0.02 0  1.44 0.02 0  1.47 0.02 0  1.5 0.02 0  0 0.04 0  0.03 0.04 0  0.06 0.04 0  0.09 0.04 0  0.12 0.04 0  0.15 0.04 0  0.18 0.04 0  0.21 0.04 0  0.24 0.04 0  0.27 0.04 0  0.3 0.04 0  0.33 0.04 0  0.36 0.04 0  0.39 0.04 0  0.42 0.04 0  0.45 0.04 0  0.48 0.04 0  0.51 0.04 0  0.54 0.04 0  0.57 0.04 0  0.6 0.04 0  0.63 0.04 0  0.66 0.04 0  0.6899999999999999 0.04 0  0.72 0.04 0  0.75 0.04 0  0.78 0.04 0  0.8100000000000001 0.04 0  0.84 0.04 0  0.87 0.04 0  0.9 0.04 0  0.93 0.04 0  0.96 0.04 0  0.99 0.04 0  1.02 0.04 0  1.05 0.04 0  1.08 0.04 0  1.11 0.04 0  1.14 0.04 0  1.17 0.04 0  1.2 0.04 0  1.23 0.04 0  1.26 0.04 0  1.29 0.04 0  1.32 0.04 0  1.35 0.04 0  1.38 0.04 0  1.41 0.04 0  1.44 0.04 0  1.47 0.04 0  1.5 0.04 0  0 0.06 0  0.03 0.06 0  0.06 0.06 0  0.09 0.06 0  0.12 0.06 0  0.15 0.06 0  0.18 0.06 0  0.21 0.06 0  0.24 0.06 0  0.27 0.06 0  0.3 0.06 0  0.33 0.06 0  0.36 0.06 0  0.39 0.06 0  0.42 0.06 0  0.45 0.06 0  0.48 0.06 0  0.51 0.06 0  0.54 0.06 0  0.57 0.06 0  0.6 0.06 0  0.63 0.06 0  0.66 0.06 0  0.6899999999999999 0.06 0  0.72 0.06 0  0.75 0.06 0  0.78 0.06 0  0.8100000000000001 0.06 0  0.84 0.06 0  0.87 0.06 0  0.9 0.06 0  0.93 0.06 0  0.96 0.06 0  0.99 0.06 0  1.02 0.06 0  1.05 0.06 0  1.08 0.06 0  1.11 0.06 0  1.14 0.06 0  1.17 0.06 0  1.2 0.06 0  1.23 0.06 0  1.26 0.06 0  1.29 0.06 0  1.32 0.06 0  1.35 0.06 0  1.38 0.06 0  1.41 0.06 0  1.44 0.06 0  1.47 0.06 0  1.5 0.06 0  0 0.08 0  0.03 0.08 0  0.06 0.08 0  0.09 0.08 0  0.12 0.08 0  0.15 0.08 0  0.18 0.08 0  0.21 0.08 0  0.24 0.08 0  0.27 0.08 0  0.3 0.08 0  0.33 0.08 0  0.36 0.08 0  0.39 0.08 0  0.42 0.08 0  0.45 0.08 0  0.48 0.08 0  0.51 0.08 0  0.54 0.08 0  0.57 0.08 0  0.6 0.08 0  0.63 0.08 0  0.66 0.08 0  0.6899999999999999 0.08 0  0.72 0.08 0  0.75 0.08 0  0.78 0.08 0  0.8100000000000001 0.08 0  0.84 0.08 0  0.87 0.08 0  0.9 0.08 0  0.93 0.08 0  0.96 0.08 0  0.99 0.08 0  1.02 0.08 0  1.05 0.08 0  1.08 0.08 0  1.11 0.08 0  1.14 0.08 0  1.17 0.08 0  1.2 0.08 0  1.23 0.08 0  1.26 0.08 0  1.29 0.08 0  1.32 0.08 0  1.35 0.08 0  1.38 0.08 0  1.41 0.08 0  1.44 0.08 0  1.47 0.08 0  1.5 0.08 0  0 0.1 0  0.03 0.1 0  0.06 0.1 0  0.09 0.1 0  0.12 0.1 0  0.15 0.1 0  0.18 0.1 0  0.21 0.1 0  0.24 0.1 0  0.27 0.1 0  0.3 0.1 0  0.33 0.1 0  0.36 0.1 0  0.39 0.1 0  0.42 0.1 0  0.45 0.1 0  0.48 0.1 0  0.51 0.1 0  0.54 0.1 0  0.57 0.1 0  0.6 0.1 0  0.63 0.1 0  0.66 0.1 0  0.6899999999999999 0.1 0  0.72 0.1 0  0.75 0.1 0  0.78 0.1 0  0.8100000000000001 0.1 0  0.84 0.1 0  0.87 0.1 0  0.9 0.1 0  0.93 0.1 0  0.96 0.1 0  0.99 0.1 0  1.02 0.1 0  1.05 0.1 0  1.08 0.1 0  1.11 0.1 0  1.14 0.1 0  1.17 0.1 0  1.2 0.1 0  1.23 0.1 0  1.26 0.1 0  1.29 0.1 0  1.32 0.1 0  1.35 0.1 0  1.38 0.1 0  1.41 0.1 0  1.44 0.1 0  1.47 0.1 0  1.5 0.1 0  0 0.12 0  0.03 0.12 0  0.06 0.12 0  0.09 0.12 0  0.12 0.12 0  0.15 0.12 0  0.18 0.12 0  0.21 0.12 0  0.24 0.12 0  0.27 0.12 0  0.3 0.12 0  0.33 0.12 0  0.36 0.12 0  0.39 0.12 0  0.42 0.12 0  0.45 0.12 0  0.48 0.12 0  0.51 0.12 0  0.54 0.12 0  0.57 0.12 0  0.6 0.12 0  0.63 0.12 0  0.66 0.12 0  0.6899999999999999 0.12 0  0.72 0.12 0  0.75 0.12 0  0.78 0.12 0  0.8100000000000001 0.12 0  0.84 0.12 0  0.87 0.12 0  0.9 0.12 0  0.93 0.12 0  0.96 0.12 0  0.99 0.12 0  1.02 0.12 0  1.05 0.12 0  1.08 0.12 0  1.11 0.12 0  1.14 0.12 0  1.17 0.12 0  1.2 0.12 0  1.23 0.12 0  1.26 0.12 0  1.29 0.12 0  1.32 0.12 0  1.35 0.12 0  1.38 0.12 0  1.41 0.12 0  1.44 0.12 0  1.47 0.12 0  1.5 0.12 0  0 0.14 0  0.03 0.14 0  0.06 0.14 0  0.09 0.14 0  0.12 0.14 0  0.15 0.14 0  0.18 0.14 0  0.21 0.14 0  0.24 0.14 0  0.27 0.14 0  0.3 0.14 0  0.33 0.14 0  0.36 0.14 0  0.39 0.14 0  0.42 0.14 0  0.45 0.14 0  0.48 0.14 0  0.51 0.14 0  0.54 0.14 0  0.57 0.14 0  0.6 0.14 0  0.63 0.14 0  0.66 0.14 0  0.6899999999999999 0.14 0  0.72 0.14 0  0.75 0.14 0  0.78 0.14 0  0.8100000000000001 0.14 0  0.84 0.14 0  0.87 0.14 0  0.9 0.14 0  0.93 0.14 0  0.96 0.14 0  0.99 0.14 0  1.02 0.14 0  1.05 0.14 0  1.08 0.14 0  1.11 0.14 0  1.14 0.14 0  1.17 0.14 0  1.2 0.14 0  1.23 0.14 0  1.26 0.14 0  1.29 0.14 0  1.32 0.14 0  1.35 0.14 0  1.38 0.14 0  1.41 0.14 0  1.44 0.14 0  1.47 0.14 0  1.5 0.14 0  0 0.16 0  0.03 0.16 0  0.06 0.16 0  0.09 0.16 0  0.12 0.16 0  0.15 0.16 0  0.18 0.16 0  0.21 0.16 0  0.24 0.16 0  0.27 0.16 0  0.3 0.16 0  0.33 0.16 0  0.36 0.16 0  0.39 0.16 0  0.42 0.16 0  0.45 0.16 0  0.48 0.16 0  0.51 0.16 0  0.54 0.16 0  0.57 0.16 0  0.6 0.16 0  0.63 0.16 0  0.66 0.16 0  0.6899999999999999 0.16 0  0.72 0.16 0  0.75 0.16 0  0.78 0.16 0  0.8100000000000001 0.16 0  0.84 0.16 0  0.87 0.16 0  0.9 0.16 0  0.93 0.16 0  0.96 0.16 0  0.99 0.16 0  1.02 0.16 0  1.05 0.16 0  1.08 0.16 0  1.11 0.16 0  1.14 0.16 0  1.17 0.16 0  1.2 0.16 0  1.23 0.16 0  1.26 0.16 0  1.29 0.16 0  1.32 0.16 0  1.35 0.16 0  1.38 0.16 0  1.41 0.16 0  1.44 0.16 0  1.47 0.16 0  1.5 0.16 0  0 0.18 0  0.03 0.18 0  0.06 0.18 0  0.09 0.18 0  0.12 0.18 0  0.15 0.18 0  0.18 0.18 0  0.21 0.18 0  0.24 0.18 0  0.27 0.18 0  0.3 0.18 0  0.33 0.18 0  0.36 0.18 0  0.39 0.18 0  0.42 0.18 0  0.45 0.18 0  0.48 0.18 0  0.51 0.18 0  0.54 0.18 0  0.57 0.18 0  0.6 0.18 0  0.63 0.18 0  0.66 0.18 0  0.6899999999999999 0.18 0  0.72 0.18 0  0.75 0.18 0  0.78 0.18 0  0.8100000000000001 0.18 0  0.84 0.18 0  0.87 0.18 0  0.9 0.18 0  0.93 0.18 0  0.96 0.18 0  0.99 0.18 0  1.02 0.18 0  1.05 0.18 0  1.08 0.18 0  1.11 0.18 0  1.14 0.18 0  1.17 0.18 0  1.2 0.18 0  1.23 0.18 0  1.26 0.18 0  1.29 0.18 0  1.32 0.18 0  1.35 0.18 0  1.38 0.18 0  1.41 0.18 0  1.44 0.18 0  1.47 0.18 0  1.5 0.18 0  0 0.2 0  0.03 0.2 0  0.06 0.2 0  0.09 0.2 0  0.12 0.2 0  0.15 0.2 0  0.18 0.2 0  0.21 0.2 0  0.24 0.2 0  0.27 0.2 0  0.3 0.2 0  0.33 0.2 0  0.36 0.2 0  0.39 0.2 0  0.42 0.2 0  0.45 0.2 0  0.48 0.2 0  0.51 0.2 0  0.54 0.2 0  0.57 0.2 0  0.6 0.2 0  0.63 0.2 0  0.66 0.2 0  0.6899999999999999 0.2 0  0.72 0.2 0  0.75 0.2 0  0.78 0.2 0  0.8100000000000001 0.2 0  0.84 0.2 0  0.87 0.2 0  0.9 0.2 0  0.93 0.2 0  0.96 0.2 0  0.99 0.2 0  1.02 0.2 0  1.05 0.2 0  1.08 0.2 0  1.11 0.2 0  1.14 0.2 0  1.17 0.2 0  1.2 0.2 0  1.23 0.2 0  1.26 0.2 0  1.29 0.2 0  1.32 0.2 0  1.35 0.2 0  1.38 0.2 0  1.41 0.2 0  1.44 0.2 0  1.47 0.2 0  1.5 0.2 0  0 0.22 0  0.03 0.22 0  0.06 0.22 0  0.09 0.22 0  0.12 0.22 0  0.15 0.22 0  0.18 0.22 0  0.21 0.22 0  0.24 0.22 0  0.27 0.22 0  0.3 0.22 0  0.33 0.22 0  0.36 0.22 0  0.39 0.22 0  0.42 0.22 0  0.45 0.22 0  0.48 0.22 0  0.51 0.22 0  0.54 0.22 0  0.57 0.22 0  0.6 0.22 0  0.63 0.22 0  0.66 0.22 0  0.6899999999999999 0.22 0  0.72 0.22 0  0.75 0.22 0  0.78 0.22 0  0.8100000000000001 0.22 0  0.84 0.22 0  0.87 0.22 0  0.9 0.22 0  0.93 0.22 0  0.96 0.22 0  0.99 0.22 0  1.02 0.22 0  1.05 0.22 0  1.08 0.22 0  1.11 0.22 0  1.14 0.22 0  1.17 0.22 0  1.2 0.22 0  1.23 0.22 0  1.26 0.22 0  1.29 0.22 0  1.32 0.22 0  1.35 0.22 0  1.38 0.22 0  1.41 0.22 0  1.44 0.22 0  1.47 0.22 0  1.5 0.22 0  0 0.24 0  0.03 0.24 0  0.06 0.24 0  0.09 0.24 0  0.12 0.24 0  0.15 0.24 0  0.18 0.24 0  0.21 0.24 0  0.24 0.24 0  0.27 0.24 0  0.3 0.24 0  0.33 0.24 0  0.36 0.24 0  0.39 0.24 0  0.42 0.24 0  0.45 0.24 0  0.48 0.24 0  0.51 0.24 0  0.54 0.24 0  0.57 0.24 0  0.6 0.24 0  0.63 0.24 0  0.66 0.24 0  0.6899999999999999 0.24 0  0.72 0.24 0  0.75 0.24 0  0.78 0.24 0  0.8100000000000001 0.24 0  0.84 0.24 0  0.87 0.24 0  0.9 0.24 0  0.93 0.24 0  0.96 0.24 0  0.99 0.24 0  1.02 0.24 0  1.05 0.24 0  1.08 0.24 0  1.11 0.24 0  1.14 0.24 0  1.17 0.24 0  1.2 0.24 0  1.23 0.24 0  1.26 0.24 0  1.29 0.24 0  1.32 0.24 0  1.35 0.24 0  1.38 0.24 0  1.41 0.24 0  1.44 0.24 0  1.47 0.24 0  1.5 0.24 0  0 0.26 0  0.03 0.26 0  0.06 0.26 0  0.09 0.26 0  0.12 0.26 0  0.15 0.26 0  0.18 0.26 0  0.21 0.26 0  0.24 0.26 0  0.27 0.26 0  0.3 0.26 0  0.33 0.26 0  0.36 0.26 0  0.39 0.26 0  0.42 0.26 0  0.45 0.26 0  0.48 0.26 0  0.51 0.26 0  0.54 0.26 0  0.57 0.26 0  0.6 0.26 0  0.63 0.26 0  0.66 0.26 0  0.6899999999999999 0.26 0  0.72 0.26 0  0.75 0.26 0  0.78 0.26 0  0.8100000000000001 0.26 0  0.84 0.26 0  0.87 0.26 0  0.9 0.26 0  0.93 0.26 0  0.96 0.26 0  0.99 0.26 0  1.02 0.26 0  1.05 0.26 0  1.08 0.26 0  1.11 0.26 0  1.14 0.26 0  1.17 0.26 0  1.2 0.26 0  1.23 0.26 0  1.26 0.26 0  1.29 0.26 0  1.32 0.26 0  1.35 0.26 0  1.38 0.26 0  1.41 0.26 0  1.44 0.26 0  1.47 0.26 0  1.5 0.26 0  0 0.28 0  0.03 0.28 0  0.06 0.28 0  0.09 0.28 0  0.12 0.28 0  0.15 0.28 0  0.18 0.28 0  0.21 0.28 0  0.24 0.28 0  0.27 0.28 0  0.3 0.28 0  0.33 0.28 0  0.36 0.28 0  0.39 0.28 0  0.42 0.28 0  0.45 0.28 0  0.48 0.28 0  0.51 0.28 0  0.54 0.28 0  0.57 0.28 0  0.6 0.28 0  0.63 0.28 0  0.66 0.28 0  0.6899999999999999 0.28 0  0.72 0.28 0  0.75 0.28 0  0.78 0.28 0  0.8100000000000001 0.28 0  0.84 0.28 0  0.87 0.28 0  0.9 0.28 0  0.93 0.28 0  0.96 0.28 0  0.99 0.28 0  1.02 0.28
[...]
<PointData  Scalars="ControlVisualisation"> 
<DataArray  type="Float64"  Name="ControlVisualisation"  format="ascii">5.4517915504596554e-03  3.6437103670589679e-03  3.6554222855389945e-03  3.6795159320628856e-03  3.7165419203146013e-03  3.7621513853511273e-03  3.8097434171439478e-03  3.8535590180225881e-03  3.8900433150919310e-03  3.9177785462872015e-03  3.9368372557074278e-03  3.9481290433260518e-03  3.9529448063768792e-03  3.9526824923154357e-03  3.9486899758141309e-03  3.9421795131456281e-03  3.9341872788109453e-03  3.9255616714265803e-03  3.9169698305275159e-03  3.9089153670938334e-03  3.9017624557425956e-03  3.8957626151706402e-03  3.8910811341511006e-03  3.8878206250073859e-03  3.8860399106933939e-03  3.8857672704038127e-03  3.8870076959808290e-03  3.8897441271774596e-03  3.8939326757607118e-03  3.8994918412650443e-03  3.9062858626003512e-03  3.9141028341280922e-03  3.9226289339137233e-03  3.9314208795692635e-03  3.9398794261779179e-03  3.9472275972299697e-03  3.9524984104290315e-03  3.9545387634223267e-03  3.9520391779499535e-03  3.9436037078642268e-03  3.9278766802114092e-03  3.9037639932449496e-03  3.8707987459141316e-03  3.8297168417081970e-03  3.7831101629975318e-03  3.7357811131661519e-03  3.6941906626926334e-03  3.6641892267260897e-03  3.6476079984878590e-03  3.6410584051369986e-03  1.0866863758356875e-02  3.6419025265794838e-03  1.8273170395024998e-03  1.8400522575078280e-03  1.8683463157657841e-03  1.9149132637867777e-03  1.9763572193586239e-03  2.0449960784293397e-03  2.1123675758111054e-03  2.1717684665792480e-03  2.2192399336146873e-03  2.2533844035194932e-03  2.2746689868540847e-03  2.2846992087873302e-03  2.2856373874144834e-03  2.2797841399542925e-03  2.2693067814651582e-03  2.2560885876626311e-03  2.2416675950920131e-03  2.2272348815686794e-03  2.2136679191634705e-03  2.2015813541101546e-03  2.1913833481782691e-03  2.1833297027638271e-03  2.1775707730366397e-03  2.1741883675646442e-03  2.1732216093129637e-03  2.1746818375709704e-03  2.1785569840189088e-03  2.1848056111689767e-03  2.1933403649989427e-03  2.2040003746225021e-03  2.2165125323543411e-03  2.2304427443854795e-03  2.2451400497289337e-03  2.2596788848016011e-03  2.2728078437497454e-03  2.2829188738064648e-03  2.2880580174348113e-03  2.2860048333102814e-03  2.2744482957756029e-03  2.2512845671985244e-03  2.2150671964058068e-03  2.1655992960157560e-03  2.1046494597977200e-03  2.0365582044992968e-03  1.9682468218028049e-03  1.9081274020736373e-03  1.8636348297804833e-03  1.8376512207960336e-03  1.8264977658330821e-03  3.6407035863050006e-03  3.6454312977900593e-03  1.8313011159194245e-03  1.8482834595715885e-03  1.8854394171942297e-03  1.9455952991456707e-03  2.0239301923521253e-03  2.1111022768338164e-03  2.1968831266040234e-03  2.2728564560990342e-03  2.3337719988863154e-03  2.3775257442245801e-03  2.4044437775480902e-03  2.4164656235899171e-03  2.4164046463121371e-03  2.4073484079727260e-03  2.3922414255663424e-03  2.3736452729989778e-03  2.3536382736714383e-03  2.3338096010593547e-03  2.3153084710602076e-03  2.2989196859601138e-03  2.2851467980643000e-03  2.2742910952049254e-03  2.2665190975351816e-03  2.2619147663695267e-03  2.2605155236507697e-03  2.2623328798597525e-03  2.2673587990363698e-03  2.2755582634298192e-03  2.2868474961344333e-03  2.3010566340617941e-03  2.3178759891457242e-03  2.3367867965519910e-03  2.3569802804062406e-03  2.3772720304215548e-03  2.3960235114495114e-03  2.4110940583902448e-03  2.4198538779648597e-03  2.4192997609085065e-03  2.4063166344395590e-03  2.3781361248919521e-03  2.3329540141907744e-03  2.2706433632058475e-03  2.1934981337893432e-03  2.1070528675255270e-03  2.0198369980464390e-03  1.9417893401656352e-03  1.8822066548737667e-03  1.8461752394236617e-03  1.8304213136770787e-03  3.6433128363139375e-03  3.6487560461902330e-03  1.8368781549079622e-03  1.8607140782086410e-03  1.9076701415451497e-03  1.9771408097965840e-03  2.0614649285087519e-03  2.1511146850420847e-03  2.2365784508902985e-03  2.3102772216175866e-03  2.3678908356511226e-03  2.4079568597379906e-03  2.4311110131329779e-03  2.4394620506520514e-03  2.4359439367483211e-03  2.4237298894799622e-03  2.4058182981168911e-03  2.3847972110084608e-03  2.3627484923354376e-03  2.3412465649016879e-03  2.3214121294409134e-03  2.3039921041461777e-03  2.2894477702202240e-03  2.2780392561489340e-03  2.2698978650573533e-03  2.2650814409167965e-03  2.2636118507523232e-03  2.2654960637596756e-03  2.2707326188328649e-03  2.2793041958855194e-03  2.2911554814743500e-03  2.3061544496626972e-03  2.3240355275835809e-03  2.3443255463680827e-03  2.3662574316491414e-03  2.3886791814379644e-03  2.4099710924838078e-03  2.4279912202758874e-03  2.4400721793682275e-03  2.4431392500076309e-03  2.4339843049220309e-03  2.4097457238919937e-03  2.3683629442063452e-03  2.3093987231425934e-03  2.2343226865914282e-03  2.1480363307002843e-03  2.0580253674004657e-03  1.9732011768616819e-03  1.9033510138963094e-03  1.8567987548513611e-03  1.8349053347821245e-03  3.6468947373783306e-03  3.6481177414443154e-03  1.8440264096959203e-03  1.8864442796876011e-03  1.9558305678014755e-03  2.0400163764204456e-03  2.1277586751301224e-03  2.2145041105562915e-03  2.2936549900961435e-03  2.3594959540015285e-03  2.4092045879843668e-03  2.4418535615090735e-03  2.4581960372004651e-03  2.4604390362064090e-03  2.4515891291859563e-03  2.4348337729349504e-03  2.4131403757342313e-03  2.3890398236883045e-03  2.3645421847923597e-03  2.3411430617954186e-03  2.3198816293419338e-03  2.3014227810789411e-03  2.2861487129605222e-03  2.2742489264781498e-03  2.2657977456691856e-03  2.2608124856899597e-03  2.2592914502693991e-03  2.2612345572493140e-03  2.2666495533418081e-03  2.2755449289796254e-03  2.2879083075698524e-03  2.3036672955855592e-03  2.3226298108906221e-03  2.3444046223388671e-03  2.3683101616202031e-03  2.3932815023044647e-03  2.4177841995475309e-03  2.4397405068209655e-03  2.4565320317413751e-03  2.4651380386298146e-03  2.4623130340953813e-03  2.4450665417154252e-03  2.4111435384225857e-03  2.3607611026008240e-03  2.2942237294389539e-03  2.2146706048937906e-03  2.1267812155799409e-03  2.0370520728259902e-03  1.9508657795677565e-03  1.8799902009440498e-03  1.8388750045159300e-03  3.6481512166135210e-03  3.6489152140994079e-03  1.8627197580579798e-03  1.9885668829111741e-03  2.1698041319486339e-03  2.2882725503250668e-03  2.3338428194473316e-03  2.3596907773514681e-03  2.3941810650902210e-03  2.4331064708891441e-03  2.4663841135589225e-03  2.4871442423626184e-03  2.4935765135933800e-03  2.4872649494992517e-03  2.4711076627275314e-03  2.4482243564790062e-03  2.4214954407269741e-03  2.3933468865376239e-03  2.3656718901976488e-03  2.3398458872821593e-03  2.3167893251189661e-03  2.2970495651392789e-03  2.2808955936033351e-03  2.2684165505475534e-03  2.2596072639274444e-03  2.2544297560114341e-03  2.2528507478486283e-03  2.2548607027179342e-03  2.2604793728052508e-03  2.2697495289643239e-03  2.2827170117241131e-03  2.2993922212094305e-03  2.3196869038393723e-03  2.3433266035536708e-03  2.3697520940854960e-03  2.3980246916761104e-03  2.4267332960621535e-03  2.4539205777201058e-03  2.4771398349745029e-03  2.4933864256569127e-03  2.4993726956009212e-03  2.4927660786697270e-03  2.4731967619704273e-03  2.4448302428609265e-03  2.4147595026175060e-03  2.3916770886245053e-03  2.3704500040078419e-03  2.3096559023180270e-03  2.1300793832504483e-03  1.9411926060142223e-03  1.8456542927163971e-03  3.6454263354842600e-03  3.7321320229163953e-03  2.0062356955219919e-03  2.7697857786380281e-03  4.5025295693947752e-03  5.5377519737590071e-03  4.4682704200682474e-03  3.3526755775684482e-03  2.7894110757656011e-03  2.5978891906501154e-03  2.5565242289364055e-03  2.5487639375478830e-03  2.5391423935126191e-03  2.5210118487144994e-03  2.4952831921204576e-03  2.4645407235110318e-03  2.4314325060534334e-03  2.3982105334937843e-03  2.3665954725799040e-03  2.3377952266788828e-03  2.3125725779172945e-03  2.2913185359083525e-03  2.2741483809175732e-03  2.2610152621096533e-03  2.2518089285241214e-03  2.2464206223587421e-03  2.2447776572057042e-03  2.2468587852894771e-03  2.2526983962525868e-03  2.2623818527351537e-03  2.2760293081265119e-03  2.2937605273567340e-03  2.3156281519396212e-03  2.3415161718051036e-03  2.3710231329456760e-03  2.4033797501268137e-03  2.4373696497001899e-03  2.4712654282051071e-03  2.5027907617161068e-03  2.5290625191943979e-03  2.5488056189364892e-03  2.5629585988518589e-03  2.5838858868563915e-03  2.6594526448442089e-03  2.8876277826032134e-03  3.3906880662714035e-03  4.3638718445577086e-03  5.5269054229813378e-03  4.7048593905240476e-03  2.8898832632269665e-03  1.9619707138399064e-03  3.6580891153618089e-03  4.0321646186106518e-03  3.9864974912875483e-03  3.5124695376495159e-02  6.3689142397719167e-02  6.0701863108003164e-02  4.2172896542610736e-02  2.0633429255603124e-02  7.3152947694061932e-03  3.6524857693618802e-03  2.8508080193590537e-03  2.6609987956470538e-03  2.6020262857884137e-03  2.5631882118301139e-03  2.5243982622952838e-03  2.4837376991300995e-03  2.4427896003577400e-03  2.4034339891409822e-03  2.3671183385127639e-03  2.3348172039587395e-03  2.3070951474845427e-03  2.2841432699245074e-03  2.2658709260847290e-03  2.2520500260658459e-03  2.2424361450995131e-03  2.2368345218464194e-03  2.2351263259423795e-03  2.2372767884227636e-03  2.2433370163617620e-03  2.2534422447820146e-03  2.2678029052164367e-03  2.2866784023852999e-03  2.3103094187916645e-03  2.3387904541283316e-03  2.3719185756356717e-03  2.4091701387151890e-03  2.4496077555484718e-03  2.4918085633839440e-03  2.5340844134079843e-03  2.5763959387738889e-03  2.6246501667801332e-03  2.7087050734107684e-03  2.9568372504950478e-03  3.7116171284186225e-03  6.6153414984523162e-03  1.7890642751608184e-02  3.8671222168749825e-02  5.8474443532119474e-02  6.4302619113129206e-02  4.6473891022672270e-02  3.9163239308557928e-03  3.8957005219344733e-03  8.0409890832437419e-03  9.2463744182367927e-02  2.1507176195548991e-01  2.2044238670701446e-01  1.8834484839324886e-01  1.4238762600888791e-01  9.2789684636114617e-02  4.8771365815066019e-02  1.7367020187515188e-02  5.2372501753058329e-03  3.1716065897519977e-03  2.7457310736720831e-03  2.6257408683618578e-03  2.5607509619421224e-03  2.5061237089438969e-03  2.4554029603176286e-03  2.4087484554291385e-03  2.3669638691231776e-03  2.3306523598313482e-03  2.3001431702714538e-03  2.2753783969247363e-03  2.2559863038690347e-03  2.2414968049807205e-03  2.2314994774840632e-03  2.2257008705093974e-03  2.2239318085797355e-03  2.2261430379561793e-03  2.2324033041437770e-03  2.2429027198158299e-03  2.2579552925569030e-03  2.2779932888991900e-03  2.3035127494915463e-03  2.3349003945870792e-03  2.3722031390503461e-03  2.4151873779517333e-03  2.4634136809274275e-03  2.5167119988637253e-03  2.5766719023304751e-03  2.6564398425360609e-03  2.8202935262479469e-03  3.2860350252404084e-03  5.0459552253598432e-03  1.4390017069214518e-02  4.2665457971800318e-02  8.7159398578524991e-02  1.3795717619332548e-01  1.8373350843100322e-01  2.1463376224189118e-01  2.1244062212375034e-01  1.1607280372859766e-01  6.0609177502804392e-03  4.1282734164739471e-01  4.6595582360320426e-01  4.9887453038802587e-01  4.2816237768547172e-01  3.6201740823038797e-01  2.8418580578706987e-01  2.0501800132890896e-01  1.3242633705251625e-01  7.2701029735150302e-02  2.9565617850084713e-02  7.9395887699523094e-03  3.5856991853755829e-03  2.8224342527517943e-03  2.6261365032781473e-03  2.5362563786901185e-03  2.4701053938140532e-03  2.4141663827636503e-03  2.3659523473766649e-03  2.3250577868575871e-03  2.2914980626394564e-03  2.2648885880277169e-03  2.2444439168574680e-03  2.2293648906136455e-03  2.2190442646581126e-03  2.2130837576826369e-03  2.2112639940717882e-03  2.2135215977745104e-03  2.2199423357504105e-03  2.2307727506327493e-03  2.2464376163143403e-03  2.2675773431722912e-03  2.2950461413795494e-03  2.3296681864102553e-03  2.3718417052680883e-03  2.4217957968244350e-03  2.4813147060800669e-03  2.5548729613297486e-03  2.6656180419778741e-03  2.9226135598273365e-03  3.6812605503602244e-03  7.0828050236155082e-03  2.4969050536162041e-02  6.6832988276197242e-02  1.2833944800610320e-01  2.0094521801655194e-01  2.7970983491191120e-01  3.5751282662187667e-01  4.2206490359867105e-01  4.5422240625369031e-01  4.7817922418265779e-01  3.5987649630994523e-01  9.8197103292143284e-01  9.5762369592834284e-01  7.9239696457730213e-01  6.6567022691729394e-01  5.6129167118710743e-01  4.5039989021836618e-01  3.4562753077908309e-01  2.4749796723026621e-01  1.6100296952026913e-01  9.1163274553191287e-02  4.1221297562775892e-02  1.2194631305287591e-02  4.2357197645929720e-03  2.9367070867834856e-03  2.6203714586707527e-03  2.4983734001845313e-03  2.4230823488789860e-03  2.3652853225164727e-03  2.3184245423487782e-03  2.2813059127175959e-03  2.2528287117141469e-03  2.2314492401460965e-03  2.2158912712483539e-03  2.2053236473879162e-03  2.1992448817209648e-03  2.1973892964746848e-03  2.1996814770650517e-03  2.2062231521492452e-03  2.2173167825652908e-03  2.2335049106048362e-03  2.2556762226722893e-03  2.2852449208134082e-03  2.3239506771980389e-03  2.3732340706856662e-03  2.4349343348209645e-03  2.5217862808833997e-03  2.6756057607964104e-03  3.0525068515312630e-03  4.2438336408323046e-03  1.0271651618501359e-02  3.5710586708308172e-02  8.6419419093036076e-02  1.5755420904528361e-01  2.4359116439366232e-01  3.4164227751262705e-01  4.4752609937055382e-01  5.4992549750281217e-01  6.6020089200244980e-01  8.0733160751532906e-01  9.6644910333535972e-01  9.6688653485285780e-01  9.9561177357206387e-01  9.9625868497871284e-01  9.8833807602506141e-01  8.9778942117526350e-01  7.4688241894119212e-01  6.1919831717909779e-01  4.9646814550149643e-01  3.8014467265133378e-01  2.7370467455086567e-01  1.8123570166249214e-01  1.0692604816990324e-01  5.3016731670348427e-02  1.8802242758219869e-02  5.6808161758300727e-03  3.2396715665361990e-03  2.6660762481883998e-03  2.4760358963371344e-03  2.3814285142167570e-03  2.3187890397533125e-03  2.2744318841010974e-03  2.2427979686458683e-03  2.2199571405940120e-03  2.2036520800858290e-03  2.1926992890504877e-03  2.1864431535226938e-03  2.1845509399704742e-03  2.1869358754725340e-03  2.1937291967818995e-03  2.2053293274740642e-03  2.2225035421934913e-03  2.2465607145086847e-03  2.2802173935826528e-03  2.3282680416217348e-03  2.3985370918039248e-03  2.5107384981377196e-03  2.7501160329963920e-03  3.3354106516349335e-03  5.3580911992778240e-03  1.5696124641764932e-02  4.7606052368012970e-02  1.0301404325835289e-01  1.7822808977452217e-01  2.7044767775149470e-01  3.7720271015986706e-01  4.9478469416617199e-01  6.1448645228949317e-01  7.4587403096489324e-01  9.2317565149779857e-01  9.9147239682316768e-01  9.9662179034611198e-01  9.9420918243810086e-01  9.9706210290722275e-01  9.9804187163169267e-01  9.9614440004799032e-01  9.8731293202725445e-01  9.0318880775169996e-01  7.6743988629070614e-01  6.4075594363418953e-01  5.1657036918595112e-01  3.9877770354334952e-01  2.9126590898263743e-01  1.9833170126770006e-01  1.2325501933882553e-01  6.7512643761428112e-02  3.0352007160214387e-02  1.0135966235633913e-02  4.3726495753797605e-03  3.0525014710916822e-03  2.6168207730652669e-03  2.4306300931234144e-03  2.3360165429119747e-03  2.2814277364153258e-03  2.2466844468447271e-03  2.2237752352996503e-03  2.2091912258525742e-03  2.2011651329308856e-03  2.1988778383684121e-03  2.2021457933831820e-03  2.2113259441727596e-03  2.2274983966415500e-03  2.2529502322707166e-03  2.2919070976916262e-03  2.3546645384866951e-03  2.4658838482534300e-03  2.6793301893509817e-03  3.1100083397664806e-03  4.2658230437162227e-03  8.8515962432360873e-03  2.6064372429490376e-02  6.2801614260630953e-02  1.2011691202023679e-01  1.9551617388642378e-01  2.8862765257352918e-01  3.9674274112028346e-01  5.1572572916730453e-01  6.3952982393096858e-01  7.6831791245865899e-01  9.2235663433357695e-01  9.8937919689453213e-01  9.9625800012788301e-01  9.9804114093955043e-01  9.9683794834551132e-01  9.9689399129200307e-01  9.9818371743715906e-01  9.9699704009223200e-01  9.9345141080204502e-01  9.7511571074250614e-01  8.7929694479040588e-01  7.6262223637767179e-01  6.4326207559306958e-01  5.2444701437405450e-01  4.1075275372214032e-01  3.0711446647996643e-01  2.1764029610472749e-01  1.4489359101353627e-01  8.9702784271079847e-02  5.0903958739568038e-02  2.5347059042313536e-02  1.0993440948199778e-02  5.6713738422557846e-03  3.9416198126522202e-03  3.2738012407093064e-03  2.9581214679392735e-03  2.7853964100845404e-03  2.6853867535964380e-03  2.6275441719910233e-03  2.5973519149505532e-03  2.5883406003200894e-03  2.5987397848887110e-03  2.6304301127790860e-03  2.6898523338192855e-03  2.7912025740631026e-03  2.9607454868772524e-03  3.2637634050078045e-03  3.8791298918521341e-03  5.4048615103083472e-03  9.8823388307012656e-03  2.2170335273160140e-02  4.6645524207340715e-02  8.6443324933745333e-02  1.4236115394172930e-01  2.1509452355102859e-01  3.0499258686938191e-01  4.0934731646680328e-01  5.2404861026137939e-01  6.4389214730264543e-01  7.6425073942330890e-01  8.8986414632191635e-01  9.7826851279280147e-01  9.9340019608840446e-01  9.9689918501511099e-01  9.9813974067699018e-01  9.9707653391800632e-01  9.9449726437373842e-01  9.9730396592777115e-01  9.9606952230174617e-01  9.9311204771963191e-01  9.8374958283151404e-01  9.3998469345853786e-01  8.5054487831222458e-01  7.4864449855831205e-01  6.3958308553693810e-01  5.2939499523949229e-01  4.2387009810759979e-01  3.2802457209201424e-01  2.4548186190154719e-01  1.7824448476731655e-01  1.2613250158407194e-01  8.7798024865460692e-02  6.0708178254751548e-02  4.1712929346928829e-02  2.8991361186181414e-02  2.1179186163253805e-02  1.6330480689217150e-02  1.3333790220725389e-02  1.1565451066877064e-02  1.0551476048835839e-02  1.0017542217669616e-02  9.8359190898313891e-03  9.9604695200263601e-03  1.0423666264146491e-02  1.1332473898231988e-02  1.2939251380066864e-02  1.5671032134669523e-02  2.0056540033678238e-02  2.6946829440214867e-02  3.8475450803047470e-02  5.7430372831606999e-02  8.5347843125002695e-02  1.2430985602971849e-01  1.7614483574612794e-01  2.4346693142732945e-01  3.2644212505965908e-01  4.2292608662490988e-01  5.2937954997713133e-01  6.4069106878394066e-01  7.5126312544375651e-01  8.5615661091808992e-01  9.4471968847024024e-01  9.8312041165669561e-01  9.9251719874068633e-01  9.9574658152187256e-01  9.9713526377322659e-01  9.9576885283047878e-01  9.6594868875253681e-01  9.8925413802897066e-01  9.8825631177475082e-01  9.8480910828013846e-01  9.7590958344271372e-01  9.5056601425735865e-01  8.9809090794400326e-01  8.2421839447850131e-01  7.3482202449094114e-01  6.3756187219827043e-01  5.3912756542995632e-01  4.4557282878053978e-01  3.6147869159119922e-01  2.8968175388314643e-01  2.3136588036222117e-01  1.8588539207341415e-01  1.5155188033631978e-01  1.2651010198392482e-01  1.0862912461330809e-01  9.6132254094475553e-02  8.7549472303746906e-02  8.1443680419691009e-02  7.7274794871418223e-02  7.4648709199397686e-02  7.3127081203849045e-02  7.2577560857470524e-02  7.2940662112791793e-02  7.4229527248474592e-02  7.6605982580254126e-02  8.0456602948123387e-02  8.6424786447618723e-02  9.5070573577540868e-02  1.0744506688841228e-01  1.2543935121446331e-01  1.5049021335442289e-01  1.8441475728603141e-01  2.2971800668487663e-01  2.8841489223130923e-01  3.6049822470404447e-01  4.4510222884170009e-01  5.3942289507369678e-01  6.3890928678977488e-01  7.3755723855530730e-01  8.2839503055177321e-01  9.0310418966866612e-01  9.5094642960717901e-01  9.7434361145408754e-01  9.8348117610441754e-01  9.8821805753780634e-01  9.9021928465087761e-01  9.8472274974537732e-01  3.4392710889947159e-01  6.4971482171828876e-01  7.9758197825500809e-01  8.8551474891847959e-01  9.1986095733841811e-01  9.2450082271113909e-01  9.0637972855894433e-01  8.6523958467992823e-01  8.0329631491547426e-01  7.2714697619713220e-01  6.4415350938147020e-01  5.6126101590090205e-01  4.839655268