<?xml version="1.0"?>
<VTKFile type="UnstructuredGrid"  version="0.1"  >
<UnstructuredGrid>
<Piece  NumberOfPoints="2601" NumberOfCells="5000">
<Points>
<DataArray  type="Float64"  NumberOfComponents="3"  format="ascii">0 0 0  0.03 0 0  0.06 0 0  0.09 0 0  0.12 0 0  0.15 0 0  0.18 0 0  0.21 0 0  0.24 0 0  0.27 0 0  0.3 0 0  0.33 0 0  0.36 0 0  0.39 0 0  0.42 0 0  0.45 0 0  0.48 0 0  0.51 0 0  0.54 0 0  0.57 0 0  0.6 0 0  0.63 0 0  0.66 0 0  0.6899999999999999 0 0  0.72 0 0  0.75 0 0  0.78 0 0  0.8100000000000001 0 0  0.84 0 0  0.87 0 0  0.9 0 0  0.93 0 0  0.96 0 0  0.99 0 0  1.02 0 0  1.05 0 0  1.08 0 0  1.11 0 0  1.14 0 0  1.17 0 0  1.2 0 0  1.23 0 0  1.26 0 0  1.29 0 0  1.32 0 0  1.35 0 0  1.38 0 0  1.41 0 0  1.44 0 0  1.47 0 0  1.5 0 0  0 0.02 0  0.03 0.02 0  0.06 0.02 0  0.09 0.02 0  0.12 0.02 0  0.15 0.02 0  0.18 0.02 0  0.21 0.02 0  0.24 0.02 0  0.27 0.02 0  0.3 0.02 0  0.33 0.02 0  0.36 0.02 0  0.39 0.02 0  0.42 0.02 0  0.45 0.02 0  0.48 0.02 0  0.51 0.02 0  0.54 0.02 0  0.57 0.02 0  0.6 0.02 0  0.63 0.02 0  0.66 0.02 0  0.6899999999999999 0.02 0  0.72 0.02 0  0.75 0.02 0  0.78 0.02 0  0.8100000000000001 0.02 0  0.84 0.02 0  0.87 0.02 0  0.9 0.02 0  0.93 0.02 0  0.96 0.02 0  0.99 0.02 0  1.02 0.02 0  1.05 0.02 0  1.08 0.02 0  1.11 0.02 0  1.14 0.02 0  1.17 0.02 0  1.2 0.02 0  1.23 0.02 0  1.26 0.02 0  1.29 0.02 0  1.32 0.02 0  1.35 0.02 0  1.38 0.02 0  1.41 0.02 0  1.44 0.02 0  1.47 0.02 0  1.5 0.02 0  0 0.04 0  0.03 0.04 0  0.06 0.04 0  0.09 0.04 0  0.12 0.04 0  0.15 0.04 0  0.18 0.04 0  0.21 0.04 0  0.24 0.04 0  0.27 0.04 0  0.3 0.04 0  0.33 0.04 0  0.36 0.04 0  0.39 0.04 0  0.42 0.04 0  0.45 0.04 0  0.48 0.04 0  0.51 0.04 0  0.54 0.04 0  0.57 0.04 0  0.6 0.04 0  0.63 0.04 0  0.66 0.04 0  0.6899999999999999 0.04 0  0.72 0.04 0  0.75 0.04 0  0.78 0.04 0  0.8100000000000001 0.04 0  0.84 0.04 0  0.87 0.04 0  0.9 0.04 0  0.93 0.04 0  0.96 0.04 0  0.99 0.04 0  1.02 0.04 0  1.05 0.04 0  1.08 0.04 0  1.11 0.04 0  1.14 0.04 0  1.17 0.04 0  1.2 0.04 0  1.23 0.04 0  1.26 0.04 0  1.29 0.04 0  1.32 0.04 0  1.35 0.04 0  1.38 0.04 0  1.41 0.04 0  1.44 0.04 0  1.47 0.04 0  1.5 0.04 0  0 0.06 0  0.03 0.06 0  0.06 0.06 0  0.09 0.06 0  0.12 0.06 0  0.15 0.06 0  0.18 0.06 0  0.21 0.06 0  0.24 0.06 0  0.27 0.06 0  0.3 0.06 0  0.33 0.06 0  0.36 0.06 0  0.39 0.06 0  0.42 0.06 0  0.45 0.06 0  0.48 0.06 0  0.51 0.06 0  0.54 0.06 0  0.57 0.06 0  0.6 0.06 0  0.63 0.06 0  0.66 0.06 0  0.6899999999999999 0.06 0  0.72 0.06 0  0.75 0.06 0  0.78 0.06 0  0.8100000000000001 0.06 0  0.84 0.06 0  0.87 0.06 0  0.9 0.06 0  0.93 0.06 0  0.96 0.06 0  0.99 0.06 0  1.02 0.06 0  1.05 0.06 0  1.08 0.06 0  1.11 0.06 0  1.14 0.06 0  1.17 0.06 0  1.2 0.06 0  1.23 0.06 0  1.26 0.06 0  1.29 0.06 0  1.32 0.06 0  1.35 0.06 0  1.38 0.06 0  1.41 0.06 0  1.44 0.06 0  1.47 0.06 0  1.5 0.06 0  0 0.08 0  0.03 0.08 0  0.06 0.08 0  0.09 0.08 0  0.12 0.08 0  0.15 0.08 0  0.18 0.08 0  0.21 0.08 0  0.24 0.08 0  0.27 0.08 0  0.3 0.08 0  0.33 0.08 0  0.36 0.08 0  0.39 0.08 0  0.42 0.08 0  0.45 0.08 0  0.48 0.08 0  0.51 0.08 0  0.54 0.08 0  0.57 0.08 0  0.6 0.08 0  0.63 0.08 0  0.66 0.08 0  0.6899999999999999 0.08 0  0.72 0.08 0  0.75 0.08 0  0.78 0.08 0  0.8100000000000001 0.08 0  0.84 0.08 0  0.87 0.08 0  0.9 0.08 0  0.93 0.08 0  0.96 0.08 0  0.99 0.08 0  1.02 0.08 0  1.05 0.08 0  1.08 0.08 0  1.11 0.08 0  1.14 0.08 0  1.17 0.08 0  1.2 0.08 0  1.23 0.08 0  1.26 0.08 0  1.29 0.08 0  1.32 0.08 0  1.35 0.08 0  1.38 0.08 0  1.41 0.08 0  1.44 0.08 0  1.47 0.08 0  1.5 0.08 0  0 0.1 0  0.03 0.1 0  0.06 0.1 0  0.09 0.1 0  0.12 0.1 0  0.15 0.1 0  0.18 0.1 0  0.21 0.1 0  0.24 0.1 0  0.27 0.1 0  0.3 0.1 0  0.33 0.1 0  0.36 0.1 0  0.39 0.1 0  0.42 0.1 0  0.45 0.1 0  0.48 0.1 0  0.51 0.1 0  0.54 0.1 0  0.57 0.1 0  0.6 0.1 0  0.63 0.1 0  0.66 0.1 0  0.6899999999999999 0.1 0  0.72 0.1 0  0.75 0.1 0  0.78 0.1 0  0.8100000000000001 0.1 0  0.84 0.1 0  0.87 0.1 0  0.9 0.1 0  0.93 0.1 0  0.96 0.1 0  0.99 0.1 0  1.02 0.1 0  1.05 0.1 0  1.08 0.1 0  1.11 0.1 0  1.14 0.1 0  1.17 0.1 0  1.2 0.1 0  1.23 0.1 0  1.26 0.1 0  1.29 0.1 0  1.32 0.1 0  1.35 0.1 0  1.38 0.1 0  1.41 0.1 0  1.44 0.1 0  1.47 0.1 0  1.5 0.1 0  0 0.12 0  0.03 0.12 0  0.06 0.12 0  0.09 0.12 0  0.12 0.12 0  0.15 0.12 0  0.18 0.12 0  0.21 0.12 0  0.24 0.12 0  0.27 0.12 0  0.3 0.12 0  0.33 0.12 0  0.36 0.12 0  0.39 0.12 0  0.42 0.12 0  0.45 0.12 0  0.48 0.12 0  0.51 0.12 0  0.54 0.12 0  0.57 0.12 0  0.6 0.12 0  0.63 0.12 0  0.66 0.12 0  0.6899999999999999 0.12 0  0.72 0.12 0  0.75 0.12 0  0.78 0.12 0  0.8100000000000001 0.12 0  0.84 0.12 0  0.87 0.12 0  0.9 0.12 0  0.93 0.12 0  0.96 0.12 0  0.99 0.12 0  1.02 0.12 0  1.05 0.12 0  1.08 0.12 0  1.11 0.12 0  1.14 0.12 0  1.17 0.12 0  1.2 0.12 0  1.23 0.12 0  1.26 0.12 0  1.29 0.12 0  1.32 0.12 0  1.35 0.12 0  1.38 0.12 0  1.41 0.12 0  1.44 0.12 0  1.47 0.12 0  1.5 0.12 0  0 0.14 0  0.03 0.14 0  0.06 0.14 0  0.09 0.14 0  0.12 0.14 0  0.15 0.14 0  0.18 0.14 0  0.21 0.14 0  0.24 0.14 0  0.27 0.14 0  0.3 0.14 0  0.33 0.14 0  0.36 0.14 0  0.39 0.14 0  0.42 0.14 0  0.45 0.14 0  0.48 0.14 0  0.51 0.14 0  0.54 0.14 0  0.57 0.14 0  0.6 0.14 0  0.63 0.14 0  0.66 0.14 0  0.6899999999999999 0.14 0  0.72 0.14 0  0.75 0.14 0  0.78 0.14 0  0.8100000000000001 0.14 0  0.84 0.14 0  0.87 0.14 0  0.9 0.14 0  0.93 0.14 0  0.96 0.14 0  0.99 0.14 0  1.02 0.14 0  1.05 0.14 0  1.08 0.14 0  1.11 0.14 0  1.14 0.14 0  1.17 0.14 0  1.2 0.14 0  1.23 0.14 0  1.26 0.14 0  1.29 0.14 0  1.32 0.14 0  1.35 0.14 0  1.38 0.14 0  1.41 0.14 0  1.44 0.14 0  1.47 0.14 0  1.5 0.14 0  0 0.16 0  0.03 0.16 0  0.06 0.16 0  0.09 0.16 0  0.12 0.16 0  0.15 0.16 0  0.18 0.16 0  0.21 0.16 0  0.24 0.16 0  0.27 0.16 0  0.3 0.16 0  0.33 0.16 0  0.36 0.16 0  0.39 0.16 0  0.42 0.16 0  0.45 0.16 0  0.48 0.16 0  0.51 0.16 0  0.54 0.16 0  0.57 0.16 0  0.6 0.16 0  0.63 0.16 0  0.66 0.16 0  0.6899999999999999 0.16 0  0.72 0.16 0  0.75 0.16 0  0.78 0.16 0  0.8100000000000001 0.16 0  0.84 0.16 0  0.87 0.16 0  0.9 0.16 0  0.93 0.16 0  0.96 0.16 0  0.99 0.16 0  1.02 0.16 0  1.05 0.16 0  1.08 0.16 0  1.11 0.16 0  1.14 0.16 0  1.17 0.16 0  1.2 0.16 0  1.23 0.16 0  1.26 0.16 0  1.29 0.16 0  1.32 0.16 0  1.35 0.16 0  1.38 0.16 0  1.41 0.16 0  1.44 0.16 0  1.47 0.16 0  1.5 0.16 0  0 0.18 0  0.03 0.18 0  0.06 0.18 0  0.09 0.18 0  0.12 0.18 0  0.15 0.18 0  0.18 0.18 0  0.21 0.18 0  0.24 0.18 0  0.27 0.18 0  0.3 0.18 0  0.33 0.18 0  0.36 0.18 0  0.39 0.18 0  0.42 0.18 0  0.45 0.18 0  0.48 0.18 0  0.51 0.18 0  0.54 0.18 0  0.57 0.18 0  0.6 0.18 0  0.63 0.18 0  0.66 0.18 0  0.6899999999999999 0.18 0  0.72 0.18 0  0.75 0.18 0  0.78 0.18 0  0.8100000000000001 0.18 0  0.84 0.18 0  0.87 0.18 0  0.9 0.18 0  0.93 0.18 0  0.96 0.18 0  0.99 0.18 0  1.02 0.18 0  1.05 0.18 0  1.08 0.18 0  1.11 0.18 0  1.14 0.18 0  1.17 0.18 0  1.2 0.18 0  1.23 0.18 0  1.26 0.18 0  1.29 0.18 0  1.32 0.18 0  1.35 0.18 0  1.38 0.18 0  1.41 0.18 0  1.44 0.18 0  1.47 0.18 0  1.5 0.18 0  0 0.2 0  0.03 0.2 0  0.06 0.2 0  0.09 0.2 0  0.12 0.2 0  0.15 0.2 0  0.18 0.2 0  0.21 0.2 0  0.24 0.2 0  0.27 0.2 0  0.3 0.2 0  0.33 0.2 0  0.36 0.2 0  0.39 0.2 0  0.42 0.2 0  0.45 0.2 0  0.48 0.2 0  0.51 0.2 0  0.54 0.2 0  0.57 0.2 0  0.6 0.2 0  0.63 0.2 0  0.66 0.2 0  0.6899999999999999 0.2 0  0.72 0.2 0  0.75 0.2 0  0.78 0.2 0  0.8100000000000001 0.2 0  0.84 0.2 0  0.87 0.2 0  0.9 0.2 0  0.93 0.2 0  0.96 0.2 0  0.99 0.2 0  1.02 0.2 0  1.05 0.2 0  1.08 0.2 0  1.11 0.2 0  1.14 0.2 0  1.17 0.2 0  1.2 0.2 0  1.23 0.2 0  1.26 0.2 0  1.29 0.2 0  1.32 0.2 0  1.35 0.2 0  1.38 0.2 0  1.41 0.2 0  1.44 0.2 0  1.47 0.2 0  1.5 0.2 0  0 0.22 0  0.03 0.22 0  0.06 0.22 0  0.09 0.22 0  0.12 0.22 0  0.15 0.22 0  0.18 0.22 0  0.21 0.22 0  0.24 0.22 0  0.27 0.22 0  0.3 0.22 0  0.33 0.22 0  0.36 0.22 0  0.39 0.22 0  0.42 0.22 0  0.45 0.22 0  0.48 0.22 0  0.51 0.22 0  0.54 0.22 0  0.57 0.22 0  0.6 0.22 0  0.63 0.22 0  0.66 0.22 0  0.6899999999999999 0.22 0  0.72 0.22 0  0.75 0.22 0  0.78 0.22 0  0.8100000000000001 0.22 0  0.84 0.22 0  0.87 0.22 0  0.9 0.22 0  0.93 0.22 0  0.96 0.22 0  0.99 0.22 0  1.02 0.22 0  1.05 0.22 0  1.08 0.22 0  1.11 0.22 0  1.14 0.22 0  1.17 0.22 0  1.2 0.22 0  1.23 0.22 0  1.26 0.22 0  1.29 0.22 0  1.32 0.22 0  1.35 0.22 0  1.38 0.22 0  1.41 0.22 0  1.44 0.22 0  1.47 0.22 0  1.5 0.22 0  0 0.24 0  0.03 0.24 0  0.06 0.24 0  0.09 0.24 0  0.12 0.24 0  0.15 0.24 0  0.18 0.24 0  0.21 0.24 0  0.24 0.24 0  0.27 0.24 0  0.3 0.24 0  0.33 0.24 0  0.36 0.24 0  0.39 0.24 0  0.42 0.24 0  0.45 0.24 0  0.48 0.24 0  0.51 0.24 0  0.54 0.24 0  0.57 0.24 0  0.6 0.24 0  0.63 0.24 0  0.66 0.24 0  0.6899999999999999 0.24 0  0.72 0.24 0  0.75 0.24 0  0.78 0.24 0  0.8100000000000001 0.24 0  0.84 0.24 0  0.87 0.24 0  0.9 0.24 0  0.93 0.24 0  0.96 0.24 0  0.99 0.24 0  1.02 0.24 0  1.05 0.24 0  1.08 0.24 0  1.11 0.24 0  1.14 0.24 0  1.17 0.24 0  1.2 0.24 0  1.23 0.24 0  1.26 0.24 0  1.29 0.24 0  1.32 0.24 0  1.35 0.24 0  1.38 0.24 0  1.41 0.24 0  1.44 0.24 0  1.47 0.24 0  1.5 0.24 0  0 0.26 0  0.03 0.26 0  0.06 0.26 0  0.09 0.26 0  0.12 0.26 0  0.15 0.26 0  0.18 0.26 0  0.21 0.26 0  0.24 0.26 0  0.27 0.26 0  0.3 0.26 0  0.33 0.26 0  0.36 0.26 0  0.39 0.26 0  0.42 0.26 0  0.45 0.26 0  0.48 0.26 0  0.51 0.26 0  0.54 0.26 0  0.57 0.26 0  0.6 0.26 0  0.63 0.26 0  0.66 0.26 0  0.6899999999999999 0.26 0  0.72 0.26 0  0.75 0.26 0  0.78 0.26 0  0.8100000000000001 0.26 0  0.84 0.26 0  0.87 0.26 0  0.9 0.26 0  0.93 0.26 0  0.96 0.26 0  0.99 0.26 0  1.02 0.26 0  1.05 0.26 0  1.08 0.26 0  1.11 0.26 0  1.14 0.26 0  1.17 0.26 0  1.2 0.26 0  1.23 0.26 0  1.26 0.26 0  1.29 0.26 0  1.32 0.26 0  1.35 0.26 0  1.38 0.26 0  1.41 0.26 0  1.44 0.26 0  1.47 0.26 0  1.5 0.26 0  0 0.28 0  0.03 0.28 0  0.06 0.28 0  0.09 0.28 0  0.12 0.28 0  0.15 0.28 0  0.18 0.28 0  0.21 0.28 0  0.24 0.28 0  0.27 0.28 0  0.3 0.28 0  0.33 0.28 0  0.36 0.28 0  0.39 0.28 0  0.42 0.28 0  0.45 0.28 0  0.48 0.28 0  0.51 0.28 0  0.54 0.28 0  0.57 0.28 0  0.6 0.28 0  0.63 0.28 0  0.66 0.28 0  0.6899999999999999 0.28 0  0.72 0.28 0  0.75 0.28 0  0.78 0.28 0  0.8100000000000001 0.28 0  0.84 0.28 0  0.87 0.28 0  0.9 0.28 0  0.93 0.28 0  0.96 0.28 0  0.99 0.28 0  1.02 0.28
[...]
<PointData  Scalars="ControlVisualisation"> 
<DataArray  type="Float64"  Name="ControlVisualisation"  format="ascii">1.3068111362630572e-02  9.1288511932052056e-03  9.1897931938654410e-03  9.2726490468531802e-03  9.4020220666454005e-03  9.6022235150841802e-03  9.8718617061903033e-03  1.0182014964646664e-02  1.0496947192755332e-02  1.0789915405969967e-02  1.1046234479268001e-02  1.1260866939030124e-02  1.1435524378385549e-02  1.1575960960022679e-02  1.1689399838712781e-02  1.1782548692471301e-02  1.1860577810794633e-02  1.1926954045160969e-02  1.1983748657535438e-02  1.2032073048911450e-02  1.2072455598531437e-02  1.2105105100549719e-02  1.2130073107541352e-02  1.2147346704525651e-02  1.2156899977364884e-02  1.2158722808377950e-02  1.2152836873049005e-02  1.2139302743666107e-02  1.2118218088677090e-02  1.2089703212451168e-02  1.2053864552116867e-02  1.2010717923021746e-02  1.1960042149251183e-02  1.1901125859667856e-02  1.1832379974636023e-02  1.1750841152137752e-02  1.1651712598070513e-02  1.1528258609969184e-02  1.1372460072180917e-02  1.1176624110253495e-02  1.0935684825321978e-02  1.0649837718749194e-02  1.0328055055310432e-02  9.9934071496518579e-03  9.6856225854691676e-03  9.4482387011080842e-03  9.2973965854119978e-03  9.2077381725863359e-03  9.1494005381706628e-03  9.0931612790652143e-03  9.1434566539386225e-02  9.1101511701781289e-03  4.1432456756725980e-03  4.3310444569261124e-03  4.8004161823887136e-03  5.5839721476388087e-03  6.5769815579820772e-03  7.6346966626571920e-03  8.6447616595759780e-03  9.5395649017666600e-03  1.0285671668172930e-02  1.0868713683932668e-02  1.1285778250354045e-02  1.1546751471501577e-02  1.1675967475190709e-02  1.1708446589683104e-02  1.1682284221762505e-02  1.1631360613201403e-02  1.1580879205962062e-02  1.1545986725927309e-02  1.1532625879788941e-02  1.1539620680238550e-02  1.1561201993346891e-02  1.1589440684291540e-02  1.1616286559344602e-02  1.1635093807714068e-02  1.1641634328190351e-02  1.1634654505500990e-02  1.1616028932295408e-02  1.1590527347978559e-02  1.1565164188908548e-02  1.1548069688535351e-02  1.1546831956267250e-02  1.1566329919104498e-02  1.1606215890246706e-02  1.1658413099497812e-02  1.1705266512190959e-02  1.1719302925081795e-02  1.1665746362325652e-02  1.1508449108727227e-02  1.1217962635527948e-02  1.0777520042498328e-02  1.0181914477987697e-02  9.4305399241716853e-03  8.5263093896964862e-03  7.4923408840628673e-03  6.4007941489167500e-03  5.3930652363492881e-03  4.6486592991443624e-03  4.2558598972734880e-03  4.1215769541894419e-03  9.0907571544067318e-03  9.1310886691474431e-03  4.2389177926014194e-03  4.7391028141629673e-03  5.8382083991962395e-03  7.3803108010748264e-03  8.8761601909600907e-03  1.0004661282225690e-02  1.0753686510980732e-02  1.1248978389985557e-02  1.1603207032074197e-02  1.1869360750989879e-02  1.2053699219553904e-02  1.2145975976874154e-02  1.2144083100869060e-02  1.2064855565382705e-02  1.1941761568312850e-02  1.1814763855412479e-02  1.1718830056409460e-02  1.1675861086389207e-02  1.1691817412946323e-02  1.1758387266049372e-02  1.1857398850480583e-02  1.1966125621591554e-02  1.2062158971638249e-02  1.2127180883938084e-02  1.2149488067543984e-02  1.2125392668931943e-02  1.2059665701211839e-02  1.1965075786305297e-02  1.1860911859222917e-02  1.1770276039216945e-02  1.1716000412030587e-02  1.1715362188578757e-02  1.1774359431900461e-02  1.1883053226670076e-02  1.2014100327494427e-02  1.2126622741599938e-02  1.2176387596091760e-02  1.2130432054862975e-02  1.1980186325467629e-02  1.1744044121506656e-02  1.1451354512380635e-02  1.1108872134795346e-02  1.0661334129509703e-02  9.9727885055963025e-03  8.8692947916532705e-03  7.3247900681054261e-03  5.7217272832513766e-03  4.6447114814223457e-03  4.1981860934221975e-03  9.1203625538560130e-03  9.1301618595045590e-03  4.4384534212457563e-03  5.4755995662084233e-03  7.3018259582523443e-03  9.1793770602016638e-03  1.0426678792260577e-02  1.1138214609126406e-02  1.1681300271150514e-02  1.2284897854991365e-02  1.2980895039662099e-02  1.3704211837358954e-02  1.4372134516771180e-02  1.4911406958291537e-02  1.5272167187169946e-02  1.5445785855676264e-02  1.5470536920170483e-02  1.5415174762051381e-02  1.5351433012772565e-02  1.5331635865991993e-02  1.5379144113792310e-02  1.5490345935387600e-02  1.5643035813054748e-02  1.5806310865867031e-02  1.5949032971268522e-02  1.6045787283612285e-02  1.6080470658503824e-02  1.6048119994236283e-02  1.5955525609363429e-02  1.5820798077806213e-02  1.5671582536995833e-02  1.5541250100503945e-02  1.5462371239312173e-02  1.5457344854739177e-02  1.5527423177469635e-02  1.5643476412750556e-02  1.5743954324037256e-02  1.5745756894200276e-02  1.5569375063330603e-02  1.5169791062068158e-02  1.4555908537390931e-02  1.3787192463873813e-02  1.2956180098595433e-02  1.2169962198748665e-02  1.1511817932018831e-02  1.0969531121887744e-02  1.0317143735133153e-02  9.1231716560035338e-03  7.1876313880232696e-03  5.3168507990519944e-03  4.3517700481023082e-03  9.1323251914274869e-03  9.0841110205600803e-03  4.8444006943589640e-03  6.9451513129241867e-03  9.5766602651656055e-03  1.1022678210690671e-02  1.1986358632125681e-02  1.3590476606457562e-02  1.6001092833410689e-02  1.8839292899966827e-02  2.1532625631190593e-02  2.3548185944068135e-02  2.4550353717378393e-02  2.4466518742059701e-02  2.3463257311723485e-02  2.1859929321817149e-02  2.0019470047067778e-02  1.8256108752040791e-02  1.6783074304446234e-02  1.5701406121400877e-02  1.5017187447048753e-02  1.4671647886224951e-02  1.4572254799004827e-02  1.4618279790702696e-02  1.4718750716074182e-02  1.4803437138559188e-02  1.4828732321129370e-02  1.4780407225371862e-02  1.4674628319456644e-02  1.4557675459037467e-02  1.4503723598104173e-02  1.4609096691688819e-02  1.4980834505289642e-02  1.5717583465767092e-02  1.6882169671099158e-02  1.8468185635261890e-02  2.0367699105638015e-02  2.2352975909000164e-02  2.4089075474919820e-02  2.5191108667332072e-02  2.5325084877086991e-02  2.4325666482415468e-02  2.2280336402171582e-02  1.9523720682746267e-02  1.6522013357809891e-02  1.3756112073449282e-02  1.1663965874458899e-02  1.0515064839909195e-02  9.3542678063267531e-03  6.7353555971760085e-03  4.6692046690704489e-03  9.1088025210823431e-03  9.0408819718696617e-03  5.7454361841208813e-03  9.8846334453472785e-03  1.2248611295379602e-02  1.2158053605235537e-02  1.3653865901672224e-02  1.7186437610134969e-02  2.2027313019122405e-02  2.7296592661288074e-02  3.1829163253932979e-02  3.4522852438917145e-02  3.4808231394840253e-02  3.2795027605474508e-02  2.9102080644677578e-02  2.4556400864420083e-02  1.9927794291401721e-02  1.5777352448562126e-02  1.2417810808708823e-02  9.9456993367601498e-03  8.3034881295131063e-03  7.3438249807711575e-03  6.8824467237577208e-03  6.7360374892240088e-03  6.7463369364789832e-03  6.7938005670712814e-03  6.8044339368552031e-03  6.7528404050784391e-03  6.6634416978416655e-03  6.6104888492407865e-03  6.7160553250537047e-03  7.1438596843672875e-03  8.0856830087817078e-03  9.7365663827135157e-03  1.2255309672484421e-02  1.5708867961484463e-02  2.0004535987932573e-02  2.4824160983193608e-02  2.9590216851410361e-02  3.3508355827123318e-02  3.5728270558185338e-02  3.5621062181050364e-02  3.3083890458100132e-02  2.8686947957016026e-02  2.3473305754575097e-02  1.8425449993714496e-02  1.4149506061900408e-02  1.1681001408626025e-02  1.0955665322985274e-02  9.3914638549359043e-03  5.3943338964906867e-03  9.0318206405392600e-03  9.4237667690051895e-03  8.2143180885132297e-03  1.4036438012414137e-02  1.2197973152967209e-02  1.6968722335191214e-02  2.8554876709084603e-02  4.0253471837012528e-02  4.9917951054617216e-02  5.7768564217080765e-02  6.3519006628307020e-02  6.6353467528056403e-02  6.5774940477430557e-02  6.2028321307169787e-02  5.5984053067747105e-02  4.8768783687820241e-02  4.1418713976368898e-02  3.4685649825483278e-02  2.8994769251424718e-02  2.4494934542515973e-02  2.1142759261009586e-02  1.8784302322208818e-02  1.7219396826556876e-02  1.6246193804148490e-02  1.5688989173271939e-02  1.5413944079076147e-02  1.5337082283040954e-02  1.5427994105427723e-02  1.5711393207894053e-02  1.6267223922007606e-02  1.7228515442002268e-02  1.8774730608608153e-02  2.1117056163986708e-02  2.4471045948905507e-02  2.9011579907336243e-02  3.4806209452314996e-02  4.1727855653745344e-02  4.9360027649178351e-02  5.6929598601476311e-02  6.3327866074179992e-02  6.7287089277591652e-02  6.7729971224493424e-02  6.4191866000183187e-02  5.7086829223914753e-02  4.7617759206511179e-02  3.7260332340859376e-02  2.7535823165030227e-02  2.1496928077581592e-02  1.6633148618689017e-02  9.4877115021562985e-03  7.7926229467892016e-03  8.9702109586358904e-03  1.1342397691704203e-02  1.7711254182829102e-02  1.0146649055072621e-02  6.0327393284203751e-02  1.0336629403165226e-01  1.3024403339319610e-01  1.4543733523646440e-01  1.5333353571169930e-01  1.5696318185230215e-01  1.5756224918288825e-01  1.5518136337337385e-01  1.4965704025852411e-01  1.4124916894311779e-01  1.3074091620778877e-01  1.1919350732798753e-01  1.0763494908063931e-01  9.6855037878746886e-02  8.7340655792331356e-02  7.9308328586981947e-02  7.2778302543593576e-02  6.7651920290272033e-02  6.3774658799553935e-02  6.0980660799231978e-02  5.9120952484747302e-02  5.8079598190304810e-02  5.7782058941326236e-02  5.8199170870965794e-02  5.9348921553376233e-02  6.1296775958531891e-02  6.4153815673464287e-02  6.8070514076635863e-02  7.3222663031742907e-02  7.9784891457248208e-02  8.7886673477520827e-02  9.7546679398792607e-02  1.0858603154117139e-01  1.2053305405435585e-01  1.3255389687241190e-01  1.4346932312658445e-01  1.5192546608625745e-01  1.5673804132883651e-01  1.5730837519718013e-01  1.5386465532544105e-01  1.4726270037267131e-01  1.3805511881868063e-01  1.2578666604841401e-01  1.0869698949048923e-01  7.8854801515015921e-02  3.4137696489907332e-02  1.6800421857978285e-02  9.4822624103918784e-03  2.2569810545313158e-02  8.2856678955153071e-02  2.5854083522969895e-01  3.1128878960995610e-01  3.3308275092238732e-01  3.3354711490473837e-01  3.2719863766119683e-01  3.1914041440065788e-01  3.1036654442385925e-01  3.0061475878754884e-01  2.8929431291496410e-01  2.7600605434622189e-01  2.6082202387996473e-01  2.4429165802561331e-01  2.2724382838128787e-01  2.1053682501591955e-01  1.9487723005437563e-01  1.8074469305314844e-01  1.6839942822267540e-01  1.5793176890304364e-01  1.4932156423272477e-01  1.4248995367110412e-01  1.3733743575480140e-01  1.3376848682825565e-01  1.3170567686322210e-01  1.3109685986559602e-01  1.3191857232330045e-01  1.3417775344145302e-01  1.3791257429066031e-01  1.4319172313626513e-01  1.5011010774342817e-01  1.5877774144418064e-01  1.6929771324183407e-01  1.8172887681919528e-01  1.9602999408279143e-01  2.1198628757976631e-01  2.2912955058819709e-01  2.4668154679916021e-01  2.6357477776484040e-01  2.7862037380898830e-01  2.9086949124895178e-01  3.0011802840349677e-01  3.0730840719041358e-01  3.1435149882122243e-01  3.2266274393045158e-01  3.3121332732057962e-01  3.3342246661191610e-01  3.1899872256909589e-01  2.5912552923238547e-01  9.7601874477604586e-02  1.9168067201757472e-02  4.8298843460565793e-01  5.8433601279991843e-01  6.9396188273980963e-01  6.3881968592635852e-01  6.0962868509855705e-01  5.6778417000299153e-01  5.2990528812213011e-01  4.9963553068314959e-01  4.7564927566223603e-01  4.5495202282124886e-01  4.3506200457604588e-01  4.1464354299327266e-01  3.9333771422060504e-01  3.7142454562216448e-01  3.4950476544862341e-01  3.2825383735156433e-01  3.0826690164929327e-01  2.8998936145675341e-01  2.7370981310413350e-01  2.5958706421449007e-01  2.4768851100103911e-01  2.3802610469235061e-01  2.3058382793186671e-01  2.2533562604350166e-01  2.2225541864454035e-01  2.2132185843445254e-01  2.2252047073133585e-01  2.2584508161190722e-01  2.3129930568756180e-01  2.3889755550109398e-01  2.4866376833466286e-01  2.6062500884932627e-01  2.7479645591640212e-01  2.9115422062451690e-01  3.0959343492057567e-01  3.2987223963429435e-01  3.5154996911627084e-01  3.7394330184323010e-01  3.9615017095835298e-01  4.1722376228955782e-01  4.3659193272989882e-01  4.5473578954255528e-01  4.7382198183205143e-01  4.9745118090468249e-01  5.2838543624879475e-01  5.6563081547161687e-01  6.0378596013236019e-01  6.4013480030351855e-01  6.4687881634075262e-01  6.3628938057423512e-01  3.6126833030627581e-01  9.9791300318064291e-01  9.9410850267262041e-01  9.5829005595215022e-01  8.9176332340934761e-01  8.3143206001143144e-01  7.6688420416732006e-01  7.0775864921986242e-01  6.5980816405522569e-01  6.2335947787305857e-01  5.9425197554435560e-01  5.6829279806571331e-01  5.4305445937150898e-01  5.1767100132199007e-01  4.9217665086777007e-01  4.6699761200194068e-01  4.4266503995542561e-01  4.1967600401737554e-01  3.9843831372548327e-01  3.7926054133103487e-01  3.6236419518930579e-01  3.4790377956933494e-01  3.3598632006294138e-01  3.2668623655547724e-01  3.2005450815103864e-01  3.1612301366446577e-01  3.1490588906988570e-01  3.1639989561576964e-01  3.2058533692937469e-01  3.2742820793235566e-01  3.3688320562745100e-01  3.4889617122211125e-01  3.6340363312001422e-01  3.8032651987069760e-01  3.9955494014070936e-01  4.2092143244045349e-01  4.4416201586063436e-01  4.6886975918188917e-01  4.9445898808125321e-01  5.2018758353662531e-01  5.4533531016601167e-01  5.6968318352410863e-01  5.9435546888648161e-01  6.2260866930542358e-01  6.5926631759497023e-01  7.0731243147315070e-01  7.6448300233446609e-01  8.2718071775250357e-01  8.9746728485479854e-01  9.6641072832863839e-01  9.9181237552916035e-01  9.7057764508738364e-01  9.9406888522655390e-01  9.9255147089002416e-01  9.8774344567516636e-01  9.6771623583726951e-01  9.3538612260970122e-01  8.8697558478083172e-01  8.2990009305352441e-01  7.7738779501193900e-01  7.3600608722286365e-01  7.0347843146684719e-01  6.7524150771338398e-01  6.4826331429673156e-01  6.2138454109616126e-01  5.9452850611480024e-01  5.6804508908071416e-01  5.4238621277784693e-01  5.1798498100506984e-01  4.9522228088428744e-01  4.7442406571714901e-01  4.5586744302017679e-01  4.3978767735257984e-01  4.2638319369053224e-01  4.1581770041936483e-01  4.0821967259686359e-01  4.0368013719098023e-01  4.0225005199452613e-01  4.0393858460916998e-01  4.0871332098211322e-01  4.1650293001120225e-01  4.2720214652606731e-01  4.4067816643047536e-01  4.5677673156509518e-01  4.7532538614935504e-01  4.9613071760702859e-01  5.1896608764167829e-01  5.4354707850226347e-01  5.6949554423957327e-01  5.9630490139316816e-01  6.2335022894799674e-01  6.5004990449800470e-01  6.7635930411666867e-01  7.0369118766269767e-01  7.3573243818449319e-01  7.7734645976494399e-01  8.2971782567658892e-01  8.8595780107008149e-01  9.3610649802301416e-01  9.7161189980406282e-01  9.8911190888290756e-01  9.9286794100652986e-01  9.9072514625326236e-01  9.9677637161875698e-01  9.9668871139371773e-01  9.9086953941486533e-01  9.8015435705460663e-01  9.6474680858838358e-01  9.3612071992361767e-01  8.9242755631705495e-01  8.4590943742662272e-01  8.0711377583594568e-01  7.7641343567601051e-01  7.4978875951206669e-01  7.2414663295646275e-01  6.9832339964478873e-01  6.7229500447087598e-01  6.4643759762908071e-01  6.2118931143828759e-01  5.9695638899400727e-01  5.7410775200615993e-01  5.5298675379229600e-01  5.3391834577915642e-01  5.1720836717390362e-01  5.0313699496805053e-01  4.9194927967550323e-01  4.8384520710832551e-01  4.7897094459232908e-01  4.7741227160235261e-01  4.7919078646450036e-01  4.8426328981257971e-01  4.9252465580287252e-01  5.0381435437623012e-01  5.1792640816010449e-01  5.3462180591002428e-01  5.5364119109849441e-01  5.7471412949273459e-01  5.9755987260671850e-01  6.2187417915271681e-01  6.4729928408083970e-01  6.7338420062062043e-01  6.9957208289457529e-01  7.2531972976085446e-01  7.5054885081524003e-01  7.7656322355556884e-01  8.0686293731536707e-01  8.4569422387623772e-01  8.9222411485210129e-01  9.3589363885392252e-01  9.6539953062098460e-01  9.8127168806373455e-01  9.9206507106376440e-01  9.9724431088237198e-01  9.9459942422878245e-01  9.9469859027477303e-01  9.9737328110800583e-01  9.9226357057695691e-01  9.8222035375400540e-01  9.6958772789241698e-01  9.4684265063811668e-01  9.1120047940654958e-01  8.7197533781892012e-01  8.3913223198678877e-01  8.1352663496733535e-01  7.9127364674519307e-01  7.6931354027564169e-01  7.4659542063971951e-01  7.2322349961197729e-01  6.9965048662030016e-01  6.7633614007545839e-01  6.5368168192970777e-01  6.3205239496121679e-01  6.1180615006487360e-01  5.9330540897911577e-01  5.7691242477946958e-01  5.6297384579644683e-01  5.5180149963785030e-01  5.4365434548233660e-01  5.3872422246741503e-01  5.3712614570320794e-01  5.3889292782488385e-01  5.4397377231193056e-01  5.5223687584161685e-01  5.6347656522646195e-01  5.7742562528627117e-01  5.9377282617345351e-01  6.1218397476626740e-01  6.3232222891311340e-01  6.5386069062912366e-01  6.7647887454284994e-01  6.9983654045758492e-01  7.2352725254203176e-01  7.4704039961519042e-01  7.6982744737443976e-01  7.9167933306462290e-01  8.1361139104004876e-01  8.3879521516174960e-01  8.7137958300131524e-01  9.1078241882168420e-01  9.4673198826087823e-01  9.6913333205785146e-01  9.8137692055613113e-01  9.9111550116552627e-01  9.9680757462185610e-01  9.9677698506399370e-01  9.9092944638931824e-01  9.9309634356971921e-01  9.8975913927480508e-01  9.7712125679352591e-01  9.5790777514845515e-01  9.3030021428071041e-01  8.9572754195508653e-01  8.6202604615443512e-01  8.3623633767139061e-01  8.1750484245938426e-01  8.0135860901289013e-01  7.8469400545279444e-01  7.6659302887844227e-01  7.4729818234807976e-01  7.2734533952326985e-01  7.0722515066501124e-01  6.8734169691478397e-01  6.6805866963725635e-01  6.4974312317285476e-01  6.3278289825699030e-01  6.1757937948689268e-01  6.0452541353714928e-01  5.9397875391566257e-01  5.8623833272149872e-01  5.8152669437574489e-01  5.7997885226066903e-01  5.8163635082440424e-01  5.8644530930283467e-01  5.9425815430928897e-01  6.0483994926746854e-01  6.1788099570998978e-01  6.3301702176384544e-01  6.4985626047554379e-01  6.6800906476885458e-01  6.8711141437304235e-01  7.0683087159396196e-01  7.2684488776440948e-01  7.4678982576168695e-01  7.6620237411170766e-01  7.8453565698329875e-01  8.0145077567223333e-01  8.1764514424216672e-01  8.3598914826587090e-01  8.6117321796154656e-01  8.9507087676401520e-01  9.3052808383368257e-01  9.5710723239861983e-01  9.7427276477600278e-01  9.8853470907534979e-01  9.9276422182071022e-01  9.9415793172401301e-01  9.7035059981678140e-01  9.9180300825635914e-01  9.7799288553999131e-01  9.3813932304019276e-01  9.0160485414015368e-01  8.6918859908122648e-01  8.3863032721069219e-01  8.1413587366469653e-01  7.9872706689298489e-01  7.8937706041486344e-01  7.8121048393268899e-01  7.7137858875893994e-01  7.5926139002252446e-01  7.4530037389101333e-01  7.3013847564944823e-01  7.1431386117185247e-01  6.9824680378450010e-01  6.8230707191097340e-01  6.6687057001278760e-01  6.5234117292375948e-01  6.3914175026864017e-01  6.2768780026777227e-01  6.1835708126593802e-01  6.1146401219759594e-01  6.0724215486467115e-01  6.0583412785667368e-01  6.0728659395024343e-01  6.1154820719515635e-01  6.1846986742908361e-01  6.2780849909049985e-01  6.3923702661455961e-01  6.5236338945892258e-01  6.6675950918210636e-01  6.8199676941871235e-01  6.9767870068499716e-01  7.1345678249789979e-01  7.2901527841911873e-01  7.4401917080588953e-01  7.5804041770494401e-01  7.7052838042683647e-01  7.8099852595367791e-01  7.8972504407860289e-01  7.9896252870206785e-01  8.1350437641221829e-01  8.3790387979427339e-01  8.7045611826860014e-01  9.0401000103954532e-01  9.3350944141901815e-01  9.7194473249099900e-01  9.9511951865225212e-01  9.9887894941174094e-01  3.5978618904865201e-01  6.7710298307718209e-01  7.2687984389514704e-01  7.5029529338505929e-01  7.4538315269157018e-01  7.3707837354011685e-01  7.2777324265784782e-01  7.2329245463577296e-01  7.2479923264835389e-01  7.2877009314475605e-01  7.3114196214301475e-01  7.3002640616022474e-01  7.254323445