<?xml version="1.0"?>
<VTKFile type="UnstructuredGrid"  version="0.1"  >
<UnstructuredGrid>
<Piece  NumberOfPoints="2601" NumberOfCells="5000">
<Points>
<DataArray  type="Float64"  NumberOfComponents="3"  format="ascii">0 0 0  0.03 0 0  0.06 0 0  0.09 0 0  0.12 0 0  0.15 0 0  0.18 0 0  0.21 0 0  0.24 0 0  0.27 0 0  0.3 0 0  0.33 0 0  0.36 0 0  0.39 0 0  0.42 0 0  0.45 0 0  0.48 0 0  0.51 0 0  0.54 0 0  0.57 0 0  0.6 0 0  0.63 0 0  0.66 0 0  0.6899999999999999 0 0  0.72 0 0  0.75 0 0  0.78 0 0  0.8100000000000001 0 0  0.84 0 0  0.87 0 0  0.9 0 0  0.93 0 0  0.96 0 0  0.99 0 0  1.02 0 0  1.05 0 0  1.08 0 0  1.11 0 0  1.14 0 0  1.17 0 0  1.2 0 0  1.23 0 0  1.26 0 0  1.29 0 0  1.32 0 0  1.35 0 0  1.38 0 0  1.41 0 0  1.44 0 0  1.47 0 0  1.5 0 0  0 0.02 0  0.03 0.02 0  0.06 0.02 0  0.09 0.02 0  0.12 0.02 0  0.15 0.02 0  0.18 0.02 0  0.21 0.02 0  0.24 0.02 0  0.27 0.02 0  0.3 0.02 0  0.33 0.02 0  0.36 0.02 0  0.39 0.02 0  0.42 0.02 0  0.45 0.02 0  0.48 0.02 0  0.51 0.02 0  0.54 0.02 0  0.57 0.02 0  0.6 0.02 0  0.63 0.02 0  0.66 0.02 0  0.6899999999999999 0.02 0  0.72 0.02 0  0.75 0.02 0  0.78 0.02 0  0.8100000000000001 0.02 0  0.84 0.02 0  0.87 0.02 0  0.9 0.02 0  0.93 0.02 0  0.96 0.02 0  0.99 0.02 0  1.02 0.02 0  1.05 0.02 0  1.08 0.02 0  1.11 0.02 0  1.14 0.02 0  1.17 0.02 0  1.2 0.02 0  1.23 0.02 0  1.26 0.02 0  1.29 0.02 0  1.32 0.02 0  1.35 0.02 0  1.38 0.02 0  1.41 0.02 0  1.44 0.02 0  1.47 0.02 0  1.5 0.02 0  0 0.04 0  0.03 0.04 0  0.06 0.04 0  0.09 0.04 0  0.12 0.04 0  0.15 0.04 0  0.18 0.04 0  0.21 0.04 0  0.24 0.04 0  0.27 0.04 0  0.3 0.04 0  0.33 0.04 0  0.36 0.04 0  0.39 0.04 0  0.42 0.04 0  0.45 0.04 0  0.48 0.04 0  0.51 0.04 0  0.54 0.04 0  0.57 0.04 0  0.6 0.04 0  0.63 0.04 0  0.66 0.04 0  0.6899999999999999 0.04 0  0.72 0.04 0  0.75 0.04 0  0.78 0.04 0  0.8100000000000001 0.04 0  0.84 0.04 0  0.87 0.04 0  0.9 0.04 0  0.93 0.04 0  0.96 0.04 0  0.99 0.04 0  1.02 0.04 0  1.05 0.04 0  1.08 0.04 0  1.11 0.04 0  1.14 0.04 0  1.17 0.04 0  1.2 0.04 0  1.23 0.04 0  1.26 0.04 0  1.29 0.04 0  1.32 0.04 0  1.35 0.04 0  1.38 0.04 0  1.41 0.04 0  1.44 0.04 0  1.47 0.04 0  1.5 0.04 0  0 0.06 0  0.03 0.06 0  0.06 0.06 0  0.09 0.06 0  0.12 0.06 0  0.15 0.06 0  0.18 0.06 0  0.21 0.06 0  0.24 0.06 0  0.27 0.06 0  0.3 0.06 0  0.33 0.06 0  0.36 0.06 0  0.39 0.06 0  0.42 0.06 0  0.45 0.06 0  0.48 0.06 0  0.51 0.06 0  0.54 0.06 0  0.57 0.06 0  0.6 0.06 0  0.63 0.06 0  0.66 0.06 0  0.6899999999999999 0.06 0  0.72 0.06 0  0.75 0.06 0  0.78 0.06 0  0.8100000000000001 0.06 0  0.84 0.06 0  0.87 0.06 0  0.9 0.06 0  0.93 0.06 0  0.96 0.06 0  0.99 0.06 0  1.02 0.06 0  1.05 0.06 0  1.08 0.06 0  1.11 0.06 0  1.14 0.06 0  1.17 0.06 0  1.2 0.06 0  1.23 0.06 0  1.26 0.06 0  1.29 0.06 0  1.32 0.06 0  1.35 0.06 0  1.38 0.06 0  1.41 0.06 0  1.44 0.06 0  1.47 0.06 0  1.5 0.06 0  0 0.08 0  0.03 0.08 0  0.06 0.08 0  0.09 0.08 0  0.12 0.08 0  0.15 0.08 0  0.18 0.08 0  0.21 0.08 0  0.24 0.08 0  0.27 0.08 0  0.3 0.08 0  0.33 0.08 0  0.36 0.08 0  0.39 0.08 0  0.42 0.08 0  0.45 0.08 0  0.48 0.08 0  0.51 0.08 0  0.54 0.08 0  0.57 0.08 0  0.6 0.08 0  0.63 0.08 0  0.66 0.08 0  0.6899999999999999 0.08 0  0.72 0.08 0  0.75 0.08 0  0.78 0.08 0  0.8100000000000001 0.08 0  0.84 0.08 0  0.87 0.08 0  0.9 0.08 0  0.93 0.08 0  0.96 0.08 0  0.99 0.08 0  1.02 0.08 0  1.05 0.08 0  1.08 0.08 0  1.11 0.08 0  1.14 0.08 0  1.17 0.08 0  1.2 0.08 0  1.23 0.08 0  1.26 0.08 0  1.29 0.08 0  1.32 0.08 0  1.35 0.08 0  1.38 0.08 0  1.41 0.08 0  1.44 0.08 0  1.47 0.08 0  1.5 0.08 0  0 0.1 0  0.03 0.1 0  0.06 0.1 0  0.09 0.1 0  0.12 0.1 0  0.15 0.1 0  0.18 0.1 0  0.21 0.1 0  0.24 0.1 0  0.27 0.1 0  0.3 0.1 0  0.33 0.1 0  0.36 0.1 0  0.39 0.1 0  0.42 0.1 0  0.45 0.1 0  0.48 0.1 0  0.51 0.1 0  0.54 0.1 0  0.57 0.1 0  0.6 0.1 0  0.63 0.1 0  0.66 0.1 0  0.6899999999999999 0.1 0  0.72 0.1 0  0.75 0.1 0  0.78 0.1 0  0.8100000000000001 0.1 0  0.84 0.1 0  0.87 0.1 0  0.9 0.1 0  0.93 0.1 0  0.96 0.1 0  0.99 0.1 0  1.02 0.1 0  1.05 0.1 0  1.08 0.1 0  1.11 0.1 0  1.14 0.1 0  1.17 0.1 0  1.2 0.1 0  1.23 0.1 0  1.26 0.1 0  1.29 0.1 0  1.32 0.1 0  1.35 0.1 0  1.38 0.1 0  1.41 0.1 0  1.44 0.1 0  1.47 0.1 0  1.5 0.1 0  0 0.12 0  0.03 0.12 0  0.06 0.12 0  0.09 0.12 0  0.12 0.12 0  0.15 0.12 0  0.18 0.12 0  0.21 0.12 0  0.24 0.12 0  0.27 0.12 0  0.3 0.12 0  0.33 0.12 0  0.36 0.12 0  0.39 0.12 0  0.42 0.12 0  0.45 0.12 0  0.48 0.12 0  0.51 0.12 0  0.54 0.12 0  0.57 0.12 0  0.6 0.12 0  0.63 0.12 0  0.66 0.12 0  0.6899999999999999 0.12 0  0.72 0.12 0  0.75 0.12 0  0.78 0.12 0  0.8100000000000001 0.12 0  0.84 0.12 0  0.87 0.12 0  0.9 0.12 0  0.93 0.12 0  0.96 0.12 0  0.99 0.12 0  1.02 0.12 0  1.05 0.12 0  1.08 0.12 0  1.11 0.12 0  1.14 0.12 0  1.17 0.12 0  1.2 0.12 0  1.23 0.12 0  1.26 0.12 0  1.29 0.12 0  1.32 0.12 0  1.35 0.12 0  1.38 0.12 0  1.41 0.12 0  1.44 0.12 0  1.47 0.12 0  1.5 0.12 0  0 0.14 0  0.03 0.14 0  0.06 0.14 0  0.09 0.14 0  0.12 0.14 0  0.15 0.14 0  0.18 0.14 0  0.21 0.14 0  0.24 0.14 0  0.27 0.14 0  0.3 0.14 0  0.33 0.14 0  0.36 0.14 0  0.39 0.14 0  0.42 0.14 0  0.45 0.14 0  0.48 0.14 0  0.51 0.14 0  0.54 0.14 0  0.57 0.14 0  0.6 0.14 0  0.63 0.14 0  0.66 0.14 0  0.6899999999999999 0.14 0  0.72 0.14 0  0.75 0.14 0  0.78 0.14 0  0.8100000000000001 0.14 0  0.84 0.14 0  0.87 0.14 0  0.9 0.14 0  0.93 0.14 0  0.96 0.14 0  0.99 0.14 0  1.02 0.14 0  1.05 0.14 0  1.08 0.14 0  1.11 0.14 0  1.14 0.14 0  1.17 0.14 0  1.2 0.14 0  1.23 0.14 0  1.26 0.14 0  1.29 0.14 0  1.32 0.14 0  1.35 0.14 0  1.38 0.14 0  1.41 0.14 0  1.44 0.14 0  1.47 0.14 0  1.5 0.14 0  0 0.16 0  0.03 0.16 0  0.06 0.16 0  0.09 0.16 0  0.12 0.16 0  0.15 0.16 0  0.18 0.16 0  0.21 0.16 0  0.24 0.16 0  0.27 0.16 0  0.3 0.16 0  0.33 0.16 0  0.36 0.16 0  0.39 0.16 0  0.42 0.16 0  0.45 0.16 0  0.48 0.16 0  0.51 0.16 0  0.54 0.16 0  0.57 0.16 0  0.6 0.16 0  0.63 0.16 0  0.66 0.16 0  0.6899999999999999 0.16 0  0.72 0.16 0  0.75 0.16 0  0.78 0.16 0  0.8100000000000001 0.16 0  0.84 0.16 0  0.87 0.16 0  0.9 0.16 0  0.93 0.16 0  0.96 0.16 0  0.99 0.16 0  1.02 0.16 0  1.05 0.16 0  1.08 0.16 0  1.11 0.16 0  1.14 0.16 0  1.17 0.16 0  1.2 0.16 0  1.23 0.16 0  1.26 0.16 0  1.29 0.16 0  1.32 0.16 0  1.35 0.16 0  1.38 0.16 0  1.41 0.16 0  1.44 0.16 0  1.47 0.16 0  1.5 0.16 0  0 0.18 0  0.03 0.18 0  0.06 0.18 0  0.09 0.18 0  0.12 0.18 0  0.15 0.18 0  0.18 0.18 0  0.21 0.18 0  0.24 0.18 0  0.27 0.18 0  0.3 0.18 0  0.33 0.18 0  0.36 0.18 0  0.39 0.18 0  0.42 0.18 0  0.45 0.18 0  0.48 0.18 0  0.51 0.18 0  0.54 0.18 0  0.57 0.18 0  0.6 0.18 0  0.63 0.18 0  0.66 0.18 0  0.6899999999999999 0.18 0  0.72 0.18 0  0.75 0.18 0  0.78 0.18 0  0.8100000000000001 0.18 0  0.84 0.18 0  0.87 0.18 0  0.9 0.18 0  0.93 0.18 0  0.96 0.18 0  0.99 0.18 0  1.02 0.18 0  1.05 0.18 0  1.08 0.18 0  1.11 0.18 0  1.14 0.18 0  1.17 0.18 0  1.2 0.18 0  1.23 0.18 0  1.26 0.18 0  1.29 0.18 0  1.32 0.18 0  1.35 0.18 0  1.38 0.18 0  1.41 0.18 0  1.44 0.18 0  1.47 0.18 0  1.5 0.18 0  0 0.2 0  0.03 0.2 0  0.06 0.2 0  0.09 0.2 0  0.12 0.2 0  0.15 0.2 0  0.18 0.2 0  0.21 0.2 0  0.24 0.2 0  0.27 0.2 0  0.3 0.2 0  0.33 0.2 0  0.36 0.2 0  0.39 0.2 0  0.42 0.2 0  0.45 0.2 0  0.48 0.2 0  0.51 0.2 0  0.54 0.2 0  0.57 0.2 0  0.6 0.2 0  0.63 0.2 0  0.66 0.2 0  0.6899999999999999 0.2 0  0.72 0.2 0  0.75 0.2 0  0.78 0.2 0  0.8100000000000001 0.2 0  0.84 0.2 0  0.87 0.2 0  0.9 0.2 0  0.93 0.2 0  0.96 0.2 0  0.99 0.2 0  1.02 0.2 0  1.05 0.2 0  1.08 0.2 0  1.11 0.2 0  1.14 0.2 0  1.17 0.2 0  1.2 0.2 0  1.23 0.2 0  1.26 0.2 0  1.29 0.2 0  1.32 0.2 0  1.35 0.2 0  1.38 0.2 0  1.41 0.2 0  1.44 0.2 0  1.47 0.2 0  1.5 0.2 0  0 0.22 0  0.03 0.22 0  0.06 0.22 0  0.09 0.22 0  0.12 0.22 0  0.15 0.22 0  0.18 0.22 0  0.21 0.22 0  0.24 0.22 0  0.27 0.22 0  0.3 0.22 0  0.33 0.22 0  0.36 0.22 0  0.39 0.22 0  0.42 0.22 0  0.45 0.22 0  0.48 0.22 0  0.51 0.22 0  0.54 0.22 0  0.57 0.22 0  0.6 0.22 0  0.63 0.22 0  0.66 0.22 0  0.6899999999999999 0.22 0  0.72 0.22 0  0.75 0.22 0  0.78 0.22 0  0.8100000000000001 0.22 0  0.84 0.22 0  0.87 0.22 0  0.9 0.22 0  0.93 0.22 0  0.96 0.22 0  0.99 0.22 0  1.02 0.22 0  1.05 0.22 0  1.08 0.22 0  1.11 0.22 0  1.14 0.22 0  1.17 0.22 0  1.2 0.22 0  1.23 0.22 0  1.26 0.22 0  1.29 0.22 0  1.32 0.22 0  1.35 0.22 0  1.38 0.22 0  1.41 0.22 0  1.44 0.22 0  1.47 0.22 0  1.5 0.22 0  0 0.24 0  0.03 0.24 0  0.06 0.24 0  0.09 0.24 0  0.12 0.24 0  0.15 0.24 0  0.18 0.24 0  0.21 0.24 0  0.24 0.24 0  0.27 0.24 0  0.3 0.24 0  0.33 0.24 0  0.36 0.24 0  0.39 0.24 0  0.42 0.24 0  0.45 0.24 0  0.48 0.24 0  0.51 0.24 0  0.54 0.24 0  0.57 0.24 0  0.6 0.24 0  0.63 0.24 0  0.66 0.24 0  0.6899999999999999 0.24 0  0.72 0.24 0  0.75 0.24 0  0.78 0.24 0  0.8100000000000001 0.24 0  0.84 0.24 0  0.87 0.24 0  0.9 0.24 0  0.93 0.24 0  0.96 0.24 0  0.99 0.24 0  1.02 0.24 0  1.05 0.24 0  1.08 0.24 0  1.11 0.24 0  1.14 0.24 0  1.17 0.24 0  1.2 0.24 0  1.23 0.24 0  1.26 0.24 0  1.29 0.24 0  1.32 0.24 0  1.35 0.24 0  1.38 0.24 0  1.41 0.24 0  1.44 0.24 0  1.47 0.24 0  1.5 0.24 0  0 0.26 0  0.03 0.26 0  0.06 0.26 0  0.09 0.26 0  0.12 0.26 0  0.15 0.26 0  0.18 0.26 0  0.21 0.26 0  0.24 0.26 0  0.27 0.26 0  0.3 0.26 0  0.33 0.26 0  0.36 0.26 0  0.39 0.26 0  0.42 0.26 0  0.45 0.26 0  0.48 0.26 0  0.51 0.26 0  0.54 0.26 0  0.57 0.26 0  0.6 0.26 0  0.63 0.26 0  0.66 0.26 0  0.6899999999999999 0.26 0  0.72 0.26 0  0.75 0.26 0  0.78 0.26 0  0.8100000000000001 0.26 0  0.84 0.26 0  0.87 0.26 0  0.9 0.26 0  0.93 0.26 0  0.96 0.26 0  0.99 0.26 0  1.02 0.26 0  1.05 0.26 0  1.08 0.26 0  1.11 0.26 0  1.14 0.26 0  1.17 0.26 0  1.2 0.26 0  1.23 0.26 0  1.26 0.26 0  1.29 0.26 0  1.32 0.26 0  1.35 0.26 0  1.38 0.26 0  1.41 0.26 0  1.44 0.26 0  1.47 0.26 0  1.5 0.26 0  0 0.28 0  0.03 0.28 0  0.06 0.28 0  0.09 0.28 0  0.12 0.28 0  0.15 0.28 0  0.18 0.28 0  0.21 0.28 0  0.24 0.28 0  0.27 0.28 0  0.3 0.28 0  0.33 0.28 0  0.36 0.28 0  0.39 0.28 0  0.42 0.28 0  0.45 0.28 0  0.48 0.28 0  0.51 0.28 0  0.54 0.28 0  0.57 0.28 0  0.6 0.28 0  0.63 0.28 0  0.66 0.28 0  0.6899999999999999 0.28 0  0.72 0.28 0  0.75 0.28 0  0.78 0.28 0  0.8100000000000001 0.28 0  0.84 0.28 0  0.87 0.28 0  0.9 0.28 0  0.93 0.28 0  0.96 0.28 0  0.99 0.28 0  1.02 0.28
[...]
<PointData  Scalars="ControlVisualisation"> 
<DataArray  type="Float64"  Name="ControlVisualisation"  format="ascii">1.1591834576171784e-03  7.7058891094243824e-04  7.7343381292733593e-04  7.7926161985502132e-04  7.8818113892388443e-04  7.9918685773456232e-04  8.1076067772321348e-04  8.2152363690204434e-04  8.3054931280718064e-04  8.3740786196443600e-04  8.4205716446380846e-04  8.4469892339529269e-04  8.4566354647161001e-04  8.4532789277851051e-04  8.4405967424478650e-04  8.4218620675027725e-04  8.3998181586057599e-04  8.3766587143212971e-04  8.3540583178252090e-04  8.3332291776669169e-04  8.3149957804707839e-04  8.2998801617693721e-04  8.2881874412880712e-04  8.2800808471604666e-04  8.2756390614394288e-04  8.2748939101209406e-04  8.2778500263364389e-04  8.2844886381510557e-04  8.2947557449125522e-04  8.3085324947846100e-04  8.3255849078967957e-04  8.3454930044222348e-04  8.3675657922146183e-04  8.3907544646011410e-04  8.4135771284776794e-04  8.4340625226123024e-04  8.4497127996206864e-04  8.4574920067558902e-04  8.4538788866120860e-04  8.4350747952471861e-04  8.3974353580975897e-04  8.3382035857509158e-04  8.2565656212574170e-04  8.1551562228619865e-04  8.0413454330128121e-04  7.9271443111416946e-04  7.8274558712688688e-04  7.7555028252139686e-04  7.7154236268099793e-04  7.6995594930139130e-04  2.3318550887671211e-03  7.7014715613798242e-04  3.8501266288874835e-04  3.8780791329504581e-04  3.9400310141370347e-04  4.0414152921865095e-04  4.1751167336328540e-04  4.3254108023576263e-04  4.4744033443557560e-04  4.6068631923115385e-04  4.7129243003589611e-04  4.7884598619770020e-04  4.8339798308908572e-04  4.8531286846139590e-04  4.8512067320017677e-04  4.8339284209527992e-04  4.8066026996732074e-04  4.7737339537014809e-04  4.7389031734558241e-04  4.7047964642059326e-04  4.6733072720453873e-04  4.6456772149339025e-04  4.6226528153885441e-04  4.6046374588385429e-04  4.5918210645157562e-04  4.5842774210258540e-04  4.5820279145931795e-04  4.5850761226894890e-04  4.5934183957992115e-04  4.6070321065773108e-04  4.6258382670886426e-04  4.6496320048830390e-04  4.6779763262916861e-04  4.7100632459076870e-04  4.7445581678625900e-04  4.7794509626195226e-04  4.8119340554953990e-04  4.8383205271164192e-04  4.8540245447642910e-04  4.8536830557435978e-04  4.8315666771297811e-04  4.7824101355484422e-04  4.7027594512975439e-04  4.5925154170760215e-04  4.4566265871208460e-04  4.3061389278448820e-04  4.1569000144857685e-04  4.0264449343802234e-04  3.9298329468804807e-04  3.8730120758776701e-04  3.8484889252507427e-04  7.6986612634316533e-04  7.7100213328006495e-04  3.8589243026306426e-04  3.8953767023601601e-04  3.9747169469361935e-04  4.1017910451267016e-04  4.2665686126576842e-04  4.4509160470694619e-04  4.6339809872554999e-04  4.7970995164703964e-04  4.9277904121385486e-04  5.0204499952777749e-04  5.0752022805621044e-04  5.0964038495033312e-04  5.0908287454046598e-04  5.0659004404508031e-04  5.0285132219623921e-04  4.9844903517629697e-04  4.9384317187147137e-04  4.8937501176528841e-04  4.8528049299191990e-04  4.8170929735650452e-04  4.7874658929019444e-04  4.7643421134872929e-04  4.7478853080819782e-04  4.7381342942033491e-04  4.7350845801169528e-04  4.7387310284405628e-04  4.7490813913171305e-04  4.7661441534647790e-04  4.7898852794926738e-04  4.8201417014516929e-04  4.8564807148625201e-04  4.8980080361184014e-04  4.9431494208950020e-04  4.9894437329755571e-04  5.0333803997091632e-04  5.0703002819641764e-04  5.0943644582020458e-04  5.0986842439341398e-04  5.0758051634081655e-04  5.0189123886017412e-04  4.9236950811405906e-04  4.7900614046757662e-04  4.6238605273022293e-04  4.4389863203827325e-04  4.2549427728194816e-04  4.0914939188547886e-04  3.9664747006176780e-04  3.8903829140735774e-04  3.8570007986950136e-04  7.7049196285831293e-04  7.7182645975445074e-04  3.8715320083380596e-04  3.9226741943182376e-04  4.0223993826076637e-04  4.1673643942701985e-04  4.3424653745284585e-04  4.5314527578031770e-04  4.7142701842910678e-04  4.8726800305574761e-04  4.9962210082818480e-04  5.0808151386879676e-04  5.1271696041042336e-04  5.1401314331138187e-04  5.1269638889032802e-04  5.0953434544363319e-04  5.0521979269735275e-04  5.0033098401607305e-04  4.9532389423746748e-04  4.9053558478915748e-04  4.8619533307028042e-04  4.8244286814117020e-04  4.7935133299937388e-04  4.7695082301231338e-04  4.7524821811027935e-04  4.7424098086940156e-04  4.7392513555916463e-04  4.7429906596387002e-04  4.7536470552510127e-04  4.7712669128300049e-04  4.7958870394752574e-04  4.8274504551467019e-04  4.8656544793089778e-04  4.9097310417056260e-04  4.9581987726627979e-04  5.0086439951520137e-04  5.0575869150500769e-04  5.1004326320581213e-04  5.1314168904689750e-04  5.1436328642719728e-04  5.1293928657732786e-04  5.0816346673031006e-04  4.9951573425645280e-04  4.8691243220002435e-04  4.7066810828436453e-04  4.5209164394367898e-04  4.3316700963029725e-04  4.1560981056413919e-04  4.0109156823140834e-04  3.9132833085179266e-04  3.8671610368061211e-04  7.7137522058695683e-04  7.7166233132753420e-04  3.8873447286605329e-04  3.9782470986739427e-04  4.1227010944219625e-04  4.2920003576824283e-04  4.4694364526460942e-04  4.6559460886096528e-04  4.8299121387686847e-04  4.9734514425341580e-04  5.0811441058556288e-04  5.1505655392841991e-04  5.1823606080436820e-04  5.1819456145220204e-04  5.1572820792399315e-04  5.1161767893019279e-04  5.0653120841028442e-04  5.0102035941164565e-04  4.9552308343833176e-04  4.9036290047573807e-04  4.8575426905128453e-04  4.8181835928008481e-04  4.7860757329409197e-04  4.7613282043441050e-04  4.7438635131598892e-04  4.7335633844804387e-04  4.7303398694334322e-04  4.7341617943934727e-04  4.7450624377621371e-04  4.7631380071761441e-04  4.7885258635959514e-04  4.8213312005562249e-04  4.8614629043892412e-04  4.9083687210182113e-04  4.9607361391010437e-04  5.0162597682304325e-04  5.0715663591674876e-04  5.1222384909156010e-04  5.1628315807442505e-04  5.1868035600339212e-04  5.1865120274014614e-04  5.1542329822907760e-04  5.0829514709677137e-04  4.9750487728181486e-04  4.8273347548493436e-04  4.6488731794637472e-04  4.4625598346199186e-04  4.2824605695021182e-04  4.1088564412145820e-04  3.9622266166878704e-04  3.8758757794974796e-04  7.7172314481707520e-04  7.7188760843033407e-04  3.9302998669923375e-04  4.2009617609545507e-04  4.5727390261747491e-04  4.7648513209317967e-04  4.8251072706301126e-04  4.9098690112197338e-04  5.0176076991862437e-04  5.1178276308085145e-04  5.1972032827666561e-04  5.2444774160217912e-04  5.2553779470839845e-04  5.2360440183245923e-04  5.1956600702296690e-04  5.1419285117988993e-04  5.0808955619341921e-04  5.0176134186775392e-04  4.9562249639380847e-04  4.8998069081109907e-04  4.8503147602661106e-04  4.8086978085648655e-04  4.7751741758577390e-04  4.7495731966262853e-04  4.7316145608446917e-04  4.7210606925587829e-04  4.7177665759364889e-04  4.7216835799408926e-04  4.7328588007275517e-04  4.7514451486453142e-04  4.7777075682060632e-04  4.8119773883202545e-04  4.8544774364706132e-04  4.9049830612254649e-04  4.9624198912943138e-04  5.0246084649020002e-04  5.0882289914566680e-04  5.1490949187229487e-04  5.2026092661569144e-04  5.2427677121416898e-04  5.2616506989520214e-04  5.2509131969259921e-04  5.2076905092178147e-04  5.1437796120703161e-04  5.0582299983503482e-04  4.9691152452189960e-04  4.9143593154388459e-04  4.8108376770792250e-04  4.4584584266583668e-04  4.0871111936885602e-04  3.8893208867377642e-04  7.7107448636054045e-04  7.9782910467384902e-04  4.2375344791809218e-04  5.8661555349678982e-04  1.0462393988961366e-03  1.3452535059237953e-03  9.2865479021244854e-04  6.6940487343079694e-04  5.6864280774368027e-04  5.3852269177569255e-04  5.3620317267464147e-04  5.3690219541131172e-04  5.3489167400339402e-04  5.3034499155131325e-04  5.2426979965945915e-04  5.1731992952237316e-04  5.0995145899589839e-04  5.0260155740613956e-04  4.9566133548397708e-04  4.8942432062470118e-04  4.8406485276136411e-04  4.7964226884879269e-04  4.7613405923546134e-04  4.7348344389709033e-04  4.7163582705837982e-04  4.7055370356427451e-04  4.7021692607439227e-04  4.7061898906919949e-04  4.7176551173457119e-04  4.7367698618684792e-04  4.7639428209527671e-04  4.7998024668993646e-04  4.8450294569983609e-04  4.8998985973312218e-04  4.9636398761810404e-04  5.0341943756510824e-04  5.1081499170954592e-04  5.1817740178982882e-04  5.2515588452254204e-04  5.3118789837660414e-04  5.3587397069269080e-04  5.3884258086989861e-04  5.4160571083373629e-04  5.5302041477745629e-04  5.9206687667687425e-04  6.8787028765669104e-04  9.1755682201085699e-04  1.3034324702586124e-03  1.0795047336921407e-03  6.1961864832343959e-04  4.1689875512948934e-04  7.7413926980026858e-04  8.6959491948518895e-04  9.2085000328153311e-04  3.1796212675304532e-02  6.0661222542913673e-02  5.8986220733157228e-02  3.9003135603612737e-02  1.3160532938867266e-02  1.7614740304656208e-03  7.2340367971763500e-04  5.8151501260103448e-04  5.5618006884443133e-04  5.4695254965347916e-04  5.3842652279406623e-04  5.2979358904838426e-04  5.2097603471417298e-04  5.1209309980953242e-04  5.0350568407784148e-04  4.9559504905571071e-04  4.8864674399707003e-04  4.8281519106875949e-04  4.7811183075317928e-04  4.7444867229822451e-04  4.7171260615882246e-04  4.6981597084531424e-04  4.6870770396377178e-04  4.6836379461875200e-04  4.6877679655537614e-04  4.6995211477796728e-04  4.7191286485241614e-04  4.7471348081008476e-04  4.7845341727135700e-04  4.8326752857758172e-04  4.8926078038062388e-04  4.9639513971487287e-04  5.0448186996370956e-04  5.1313901313636571e-04  5.2200180106661454e-04  5.3083043093411395e-04  5.3992052077688293e-04  5.4986774627583833e-04  5.6401219515112846e-04  6.0853126363509319e-04  7.5551756897774972e-04  1.5176966363917984e-03  1.0512613048743640e-02  3.3122791493110072e-02  5.3958324837208430e-02  6.1641357435319948e-02  4.7935953106450789e-02  9.5940185647986546e-04  8.5636486706650733e-04  1.8732378639052924e-03  9.0121013332795250e-02  2.1014449906905816e-01  2.1484123013707010e-01  1.8168133441148698e-01  1.3450440544438227e-01  8.4359507707994594e-02  4.1773512848634023e-02  9.5832141536508313e-03  1.0406763879489325e-03  6.3733801778266758e-04  5.6819495117699736e-04  5.4850674972489679e-04  5.3616513508441231e-04  5.2517819611442250e-04  5.1450051406444399e-04  5.0443368128666910e-04  4.9536695033575303e-04  4.8758261147899273e-04  4.8122701329918741e-04  4.7624626051646652e-04  4.7245086412656508e-04  4.6964689413699659e-04  4.6770856448536205e-04  4.6657577393634003e-04  4.6622517368186302e-04  4.6664994191867692e-04  4.6785331017641570e-04  4.6985514290473842e-04  4.7271804548307034e-04  4.7658087059587517e-04  4.8167692295550857e-04  4.8823976911415606e-04  4.9629375194448050e-04  5.0563281362440027e-04  5.1581886670845113e-04  5.2637558062664609e-04  5.3787165822548246e-04  5.5320654855030402e-04  5.8137766016128556e-04  6.6953146303879471e-04  1.0412306754076985e-03  6.9194112504405124e-03  3.6744266628230486e-02  7.8242673804416074e-02  1.2962903932989461e-01  1.7701770435258932e-01  2.0934643414999285e-01  2.0843088420007103e-01  1.1499812148303358e-01  1.3833112749271678e-03  4.0733418918719771e-01  4.6633874562289568e-01  4.9756525382631334e-01  4.2542959728227153e-01  3.5809882965039225e-01  2.7779568443292169e-01  1.9628612576317389e-01  1.2200736046335947e-01  6.3473473950242984e-02  2.2257661671957044e-02  1.8964104803011982e-03  7.0059310053787599e-04  5.7276055635864347e-04  5.4504720209743352e-04  5.3029605296504335e-04  5.1722800133010595e-04  5.0536333455604866e-04  4.9492206156955269e-04  4.8614949211466061e-04  4.7922896219298040e-04  4.7401136950919753e-04  4.7013765432831335e-04  4.6729671333535245e-04  4.6532586220386472e-04  4.6416901685270354e-04  4.6381171126032262e-04  4.6425019573425517e-04  4.6548298348384517e-04  4.6751697463264555e-04  4.7040807616746054e-04  4.7432571318125770e-04  4.7964898197123761e-04  4.8683687791251378e-04  4.9603295431637157e-04  5.0682994222078542e-04  5.1933178897027674e-04  5.3223407046136930e-04  5.5016966475632473e-04  5.9552251441911681e-04  7.3561651255059867e-04  1.5963746522081688e-03  1.8361654130417897e-02  5.7073539873345645e-02  1.1901885178266516e-01  1.9346669646455808e-01  2.7432226804358939e-01  3.5388661719005626e-01  4.1985992548204570e-01  4.5162925176661256e-01  4.7498036782121261e-01  3.5885411113170312e-01  9.9572460295963150e-01  9.7657242621241547e-01  7.9192570001456519e-01  6.6666187192720439e-01  5.5984828836073930e-01  4.4767783405973671e-01  3.4025642863140332e-01  2.3907156637266525e-01  1.5006432620559987e-01  8.0561484111401863e-02  3.5237952368077564e-02  4.2232184349165931e-03  7.9059801743535914e-04  5.8377070162073292e-04  5.4068945141477721e-04  5.2107870854199820e-04  5.0649527937931258e-04  4.9429958404172635e-04  4.8427266665560550e-04  4.7674804063234144e-04  4.7139236620155433e-04  4.6753537186348699e-04  4.6469711365543340e-04  4.6269713463680662e-04  4.6151172939125091e-04  4.6114671659503261e-04  4.6160334480052157e-04  4.6287436795365349e-04  4.6494042115410405e-04  4.6781805920537677e-04  4.7168610657746465e-04  4.7710392218817488e-04  4.8498349435360550e-04  4.9583277889178666e-04  5.0859628578685668e-04  5.2610297001846548e-04  5.4793935540260112e-04  6.0997700108343688e-04  8.3184614234950134e-04  2.9398378327395499e-03  2.8602620136746346e-02  7.5197446437003532e-02  1.4813593757177793e-01  2.3647384713643391e-01  3.3730968382003090e-01  4.4562504605915038e-01  5.4872779910269665e-01  6.6050026314885335e-01  8.0909247516367011e-01  9.8589863929092203e-01  9.8833347459234644e-01  9.9905284615113865e-01  9.9918212825815056e-01  9.9717802498417796e-01  9.0559317578343301e-01  7.4722805305131579e-01  6.1902342347948625e-01  4.9404927663060860e-01  3.7509506587975794e-01  2.6568953708113607e-01  1.7039261331054087e-01  9.5312423926192325e-02  4.4453256575949403e-02  8.7652580741493860e-03  1.0550596658727180e-03  6.2648825462586490e-04  5.3922220463638738e-04  5.1162262262367808e-04  4.9492043383197505e-04  4.8247719156907233e-04  4.7408280696344910e-04  4.6867665775012564e-04  4.6492171131953732e-04  4.6208589980723891e-04  4.6002207843633754e-04  4.5878627755407281e-04  4.5841066503701192e-04  4.5889867835704025e-04  4.6024821188420079e-04  4.6240318682251125e-04  4.6529873276642691e-04  4.6910318010627149e-04  4.7446424897010632e-04  4.8352303859384402e-04  4.9799863105215393e-04  5.1689346405504205e-04  5.6132463667436089e-04  6.4969629886218279e-04  1.0138214789128714e-03  6.8587648400514215e-03  3.8198101184359783e-02  9.1788670156353155e-02  1.6897465777568108e-01  2.6370769461069637e-01  3.7347106158476190e-01  4.9348822498329770e-01  6.1463561838462200e-01  7.4599171596005631e-01  9.3508768125576136e-01  9.9805984918906876e-01  9.9926789604052735e-01  9.9871979070273897e-01  9.9937366728299060e-01  9.9958345378293867e-01  9.9916779554746527e-01  9.9693501538932439e-01  9.1086880712108897e-01  7.6936471674116802e-01  6.4038264965714331e-01  5.1416369203175583e-01  3.9391792796086900e-01  2.8348271500525130e-01  1.8749648034969871e-01  1.1067474406513161e-01  5.6562142624108011e-02  2.0757377696748826e-02  2.6463387826876203e-03  8.0989236100364841e-04  5.8958172932115798e-04  5.2252246098168325e-04  4.9322489113974653e-04  4.7881721342961912e-04  4.7117138544858683e-04  4.6633600805205352e-04  4.6275277810642313e-04  4.6017777604985966e-04  4.5868855948430715e-04  4.5826937246716900e-04  4.5890078977597724e-04  4.6064941810611580e-04  4.6351037600737431e-04  4.6748487784699046e-04  4.7302055444888166e-04  4.8121897393809028e-04  4.9904472553261980e-04  5.3840405130354879e-04  6.1199881378295106e-04  8.4112892908849084e-04  2.1410818394097916e-03  1.4248581544276480e-02  5.0612628783655807e-02  1.0893408782928954e-01  1.8631536862967069e-01  2.8205779054108526e-01  3.9318579806046972e-01  5.1473334671906201e-01  6.4020619128881318e-01  7.6901250513876040e-01  9.3443248395056178e-01  9.9754105227283918e-01  9.9919382286250735e-01  9.9958298546200708e-01  9.9932434856942631e-01  9.9933698280185457e-01  9.9961446320577518e-01  9.9936063881616344e-01  9.9854918995034536e-01  9.9297372181598598e-01  8.8485054356456061e-01  7.6442487297479877e-01  6.4283097011806045e-01  5.2187166571077359e-01  4.0584245859691381e-01  2.9942626623361168e-01  2.0695933060174218e-01  1.3205976111201773e-01  7.7575045746280949e-02  4.2278593732696330e-02  1.7103076236746971e-02  3.1142383753009805e-03  1.0760536751898944e-03  7.3289169868889130e-04  6.2614317241796100e-04  5.7758471481530690e-04  5.5001197331392576e-04  5.3282730743926029e-04  5.2257987732028826e-04  5.1743468135104340e-04  5.1611920502774261e-04  5.1826461274685656e-04  5.2446698266155783e-04  5.3560753525435094e-04  5.5333958316483600e-04  5.8151296484455100e-04  6.2473932870040405e-04  7.3259119083633664e-04  1.0694434073470274e-03  2.6684932415734336e-03  1.4047189265093856e-02  4.0774827784975889e-02  7.3951077484910185e-02  1.3080615863669912e-01  2.0601747940735046e-01  2.9857059006967945e-01  4.0586055472183935e-01  5.2296667837541233e-01  6.4466267926765697e-01  7.6593641685246594e-01  8.9750577592134306e-01  9.9443291315967852e-01  9.9854072910756231e-01  9.9933844928547022e-01  9.9960487884182758e-01  9.9937684071339328e-01  9.9879591704377868e-01  9.9942262310621943e-01  9.9915666191240349e-01  9.9847838485901297e-01  9.9600577448993421e-01  9.5475544956364400e-01  8.5516683660262394e-01  7.5012073956253766e-01  6.3887380492676915e-01  5.2660051537240959e-01  4.1889145970714992e-01  3.2055773247524405e-01  2.3542496922125919e-01  1.6590456848279064e-01  1.1315617410869701e-01  7.5820493422156618e-02  5.1273269572337250e-02  3.4507350791246033e-02  2.1116227606297455e-02  1.2622021209526772e-02  8.4546606851816468e-03  6.0344594624148319e-03  4.4430529479327829e-03  3.5653858772183300e-03  3.1674570284773895e-03  3.0443364983396429e-03  3.1324351019355774e-03  3.4917996700734163e-03  4.2878722585245983e-03  5.7386739898115449e-03  8.1346394227878142e-03  1.1673932854758684e-02  1.8379231105221262e-02  3.2312531910638549e-02  4.8563024196468588e-02  7.2647986426129477e-02  1.1262512367174704e-01  1.6598174763840381e-01  2.3466009243100300e-01  3.2034411456962786e-01  4.1950647983116718e-01  5.2815961024220603e-01  6.4126692623232129e-01  7.5350659090250105e-01  8.6192304265681008e-01  9.6151587203459066e-01  9.9582894899513608e-01  9.9832249304989773e-01  9.9908372887770147e-01  9.9938530448115304e-01  9.9908920326548201e-01  9.8787048273732347e-01  9.9743724888807217e-01  9.9724094392718943e-01  9.9635531916682796e-01  9.9351552893953987e-01  9.6892240164895260e-01  9.0688167798536989e-01  8.2822136038743877e-01  7.3595286885558986e-01  6.3660550314617703e-01  5.3625890763569850e-01  4.4073127054851091e-01  3.5462093827441554e-01  2.8088084289654963e-01  2.2077985283078733e-01  1.7402120738592475e-01  1.3924141098634052e-01  1.1456892421255993e-01  9.7416958796032335e-02  8.5113636859546801e-02  7.6777176974789196e-02  7.1724781234195956e-02  6.8410876819635438e-02  6.6106421496952977e-02  6.4799724403485678e-02  6.4335300783830873e-02  6.4607635201796687e-02  6.5703027543148301e-02  6.7859911031031117e-02  7.1310443789134370e-02  7.6390817245684861e-02  8.4020349806722197e-02  9.5976333371115843e-02  1.1464171158255473e-01  1.4022453813966904e-01  1.7427710052184037e-01  2.2048935480508433e-01  2.8079871428861175e-01  3.5513157090866371e-01  4.4192694792265974e-01  5.3822606196181666e-01  6.3938126135660700e-01  7.3984768976552739e-01  8.3370016452476536e-01  9.1382095870669666e-01  9.6979866244260227e-01  9.9264483330698217e-01  9.9593400067773175e-01  9.9722218107670735e-01  9.9773290453667374e-01  9.9648246323036749e-01  3.4218898010060989e-01  6.5002405887394643e-01  8.0398068741655204e-01  8.9738812320014982e-01  9.3432742180878314e-01  9.3867548134141587e-01  9.1748743867806870e-01  8.7226990794921000e-01  8.0675789413596544e-01  7.2808398736684010e-01  6.4321911215061378e-01  5.5866784094040689e-01  4.797627193