<?xml version="1.0"?>
<VTKFile type="UnstructuredGrid"  version="0.1"  >
<UnstructuredGrid>
<Piece  NumberOfPoints="2601" NumberOfCells="5000">
<Points>
<DataArray  type="Float64"  NumberOfComponents="3"  format="ascii">0 0 0  0.03 0 0  0.06 0 0  0.09 0 0  0.12 0 0  0.15 0 0  0.18 0 0  0.21 0 0  0.24 0 0  0.27 0 0  0.3 0 0  0.33 0 0  0.36 0 0  0.39 0 0  0.42 0 0  0.45 0 0  0.48 0 0  0.51 0 0  0.54 0 0  0.57 0 0  0.6 0 0  0.63 0 0  0.66 0 0  0.6899999999999999 0 0  0.72 0 0  0.75 0 0  0.78 0 0  0.8100000000000001 0 0  0.84 0 0  0.87 0 0  0.9 0 0  0.93 0 0  0.96 0 0  0.99 0 0  1.02 0 0  1.05 0 0  1.08 0 0  1.11 0 0  1.14 0 0  1.17 0 0  1.2 0 0  1.23 0 0  1.26 0 0  1.29 0 0  1.32 0 0  1.35 0 0  1.38 0 0  1.41 0 0  1.44 0 0  1.47 0 0  1.5 0 0  0 0.02 0  0.03 0.02 0  0.06 0.02 0  0.09 0.02 0  0.12 0.02 0  0.15 0.02 0  0.18 0.02 0  0.21 0.02 0  0.24 0.02 0  0.27 0.02 0  0.3 0.02 0  0.33 0.02 0  0.36 0.02 0  0.39 0.02 0  0.42 0.02 0  0.45 0.02 0  0.48 0.02 0  0.51 0.02 0  0.54 0.02 0  0.57 0.02 0  0.6 0.02 0  0.63 0.02 0  0.66 0.02 0  0.6899999999999999 0.02 0  0.72 0.02 0  0.75 0.02 0  0.78 0.02 0  0.8100000000000001 0.02 0  0.84 0.02 0  0.87 0.02 0  0.9 0.02 0  0.93 0.02 0  0.96 0.02 0  0.99 0.02 0  1.02 0.02 0  1.05 0.02 0  1.08 0.02 0  1.11 0.02 0  1.14 0.02 0  1.17 0.02 0  1.2 0.02 0  1.23 0.02 0  1.26 0.02 0  1.29 0.02 0  1.32 0.02 0  1.35 0.02 0  1.38 0.02 0  1.41 0.02 0  1.44 0.02 0  1.47 0.02 0  1.5 0.02 0  0 0.04 0  0.03 0.04 0  0.06 0.04 0  0.09 0.04 0  0.12 0.04 0  0.15 0.04 0  0.18 0.04 0  0.21 0.04 0  0.24 0.04 0  0.27 0.04 0  0.3 0.04 0  0.33 0.04 0  0.36 0.04 0  0.39 0.04 0  0.42 0.04 0  0.45 0.04 0  0.48 0.04 0  0.51 0.04 0  0.54 0.04 0  0.57 0.04 0  0.6 0.04 0  0.63 0.04 0  0.66 0.04 0  0.6899999999999999 0.04 0  0.72 0.04 0  0.75 0.04 0  0.78 0.04 0  0.8100000000000001 0.04 0  0.84 0.04 0  0.87 0.04 0  0.9 0.04 0  0.93 0.04 0  0.96 0.04 0  0.99 0.04 0  1.02 0.04 0  1.05 0.04 0  1.08 0.04 0  1.11 0.04 0  1.14 0.04 0  1.17 0.04 0  1.2 0.04 0  1.23 0.04 0  1.26 0.04 0  1.29 0.04 0  1.32 0.04 0  1.35 0.04 0  1.38 0.04 0  1.41 0.04 0  1.44 0.04 0  1.47 0.04 0  1.5 0.04 0  0 0.06 0  0.03 0.06 0  0.06 0.06 0  0.09 0.06 0  0.12 0.06 0  0.15 0.06 0  0.18 0.06 0  0.21 0.06 0  0.24 0.06 0  0.27 0.06 0  0.3 0.06 0  0.33 0.06 0  0.36 0.06 0  0.39 0.06 0  0.42 0.06 0  0.45 0.06 0  0.48 0.06 0  0.51 0.06 0  0.54 0.06 0  0.57 0.06 0  0.6 0.06 0  0.63 0.06 0  0.66 0.06 0  0.6899999999999999 0.06 0  0.72 0.06 0  0.75 0.06 0  0.78 0.06 0  0.8100000000000001 0.06 0  0.84 0.06 0  0.87 0.06 0  0.9 0.06 0  0.93 0.06 0  0.96 0.06 0  0.99 0.06 0  1.02 0.06 0  1.05 0.06 0  1.08 0.06 0  1.11 0.06 0  1.14 0.06 0  1.17 0.06 0  1.2 0.06 0  1.23 0.06 0  1.26 0.06 0  1.29 0.06 0  1.32 0.06 0  1.35 0.06 0  1.38 0.06 0  1.41 0.06 0  1.44 0.06 0  1.47 0.06 0  1.5 0.06 0  0 0.08 0  0.03 0.08 0  0.06 0.08 0  0.09 0.08 0  0.12 0.08 0  0.15 0.08 0  0.18 0.08 0  0.21 0.08 0  0.24 0.08 0  0.27 0.08 0  0.3 0.08 0  0.33 0.08 0  0.36 0.08 0  0.39 0.08 0  0.42 0.08 0  0.45 0.08 0  0.48 0.08 0  0.51 0.08 0  0.54 0.08 0  0.57 0.08 0  0.6 0.08 0  0.63 0.08 0  0.66 0.08 0  0.6899999999999999 0.08 0  0.72 0.08 0  0.75 0.08 0  0.78 0.08 0  0.8100000000000001 0.08 0  0.84 0.08 0  0.87 0.08 0  0.9 0.08 0  0.93 0.08 0  0.96 0.08 0  0.99 0.08 0  1.02 0.08 0  1.05 0.08 0  1.08 0.08 0  1.11 0.08 0  1.14 0.08 0  1.17 0.08 0  1.2 0.08 0  1.23 0.08 0  1.26 0.08 0  1.29 0.08 0  1.32 0.08 0  1.35 0.08 0  1.38 0.08 0  1.41 0.08 0  1.44 0.08 0  1.47 0.08 0  1.5 0.08 0  0 0.1 0  0.03 0.1 0  0.06 0.1 0  0.09 0.1 0  0.12 0.1 0  0.15 0.1 0  0.18 0.1 0  0.21 0.1 0  0.24 0.1 0  0.27 0.1 0  0.3 0.1 0  0.33 0.1 0  0.36 0.1 0  0.39 0.1 0  0.42 0.1 0  0.45 0.1 0  0.48 0.1 0  0.51 0.1 0  0.54 0.1 0  0.57 0.1 0  0.6 0.1 0  0.63 0.1 0  0.66 0.1 0  0.6899999999999999 0.1 0  0.72 0.1 0  0.75 0.1 0  0.78 0.1 0  0.8100000000000001 0.1 0  0.84 0.1 0  0.87 0.1 0  0.9 0.1 0  0.93 0.1 0  0.96 0.1 0  0.99 0.1 0  1.02 0.1 0  1.05 0.1 0  1.08 0.1 0  1.11 0.1 0  1.14 0.1 0  1.17 0.1 0  1.2 0.1 0  1.23 0.1 0  1.26 0.1 0  1.29 0.1 0  1.32 0.1 0  1.35 0.1 0  1.38 0.1 0  1.41 0.1 0  1.44 0.1 0  1.47 0.1 0  1.5 0.1 0  0 0.12 0  0.03 0.12 0  0.06 0.12 0  0.09 0.12 0  0.12 0.12 0  0.15 0.12 0  0.18 0.12 0  0.21 0.12 0  0.24 0.12 0  0.27 0.12 0  0.3 0.12 0  0.33 0.12 0  0.36 0.12 0  0.39 0.12 0  0.42 0.12 0  0.45 0.12 0  0.48 0.12 0  0.51 0.12 0  0.54 0.12 0  0.57 0.12 0  0.6 0.12 0  0.63 0.12 0  0.66 0.12 0  0.6899999999999999 0.12 0  0.72 0.12 0  0.75 0.12 0  0.78 0.12 0  0.8100000000000001 0.12 0  0.84 0.12 0  0.87 0.12 0  0.9 0.12 0  0.93 0.12 0  0.96 0.12 0  0.99 0.12 0  1.02 0.12 0  1.05 0.12 0  1.08 0.12 0  1.11 0.12 0  1.14 0.12 0  1.17 0.12 0  1.2 0.12 0  1.23 0.12 0  1.26 0.12 0  1.29 0.12 0  1.32 0.12 0  1.35 0.12 0  1.38 0.12 0  1.41 0.12 0  1.44 0.12 0  1.47 0.12 0  1.5 0.12 0  0 0.14 0  0.03 0.14 0  0.06 0.14 0  0.09 0.14 0  0.12 0.14 0  0.15 0.14 0  0.18 0.14 0  0.21 0.14 0  0.24 0.14 0  0.27 0.14 0  0.3 0.14 0  0.33 0.14 0  0.36 0.14 0  0.39 0.14 0  0.42 0.14 0  0.45 0.14 0  0.48 0.14 0  0.51 0.14 0  0.54 0.14 0  0.57 0.14 0  0.6 0.14 0  0.63 0.14 0  0.66 0.14 0  0.6899999999999999 0.14 0  0.72 0.14 0  0.75 0.14 0  0.78 0.14 0  0.8100000000000001 0.14 0  0.84 0.14 0  0.87 0.14 0  0.9 0.14 0  0.93 0.14 0  0.96 0.14 0  0.99 0.14 0  1.02 0.14 0  1.05 0.14 0  1.08 0.14 0  1.11 0.14 0  1.14 0.14 0  1.17 0.14 0  1.2 0.14 0  1.23 0.14 0  1.26 0.14 0  1.29 0.14 0  1.32 0.14 0  1.35 0.14 0  1.38 0.14 0  1.41 0.14 0  1.44 0.14 0  1.47 0.14 0  1.5 0.14 0  0 0.16 0  0.03 0.16 0  0.06 0.16 0  0.09 0.16 0  0.12 0.16 0  0.15 0.16 0  0.18 0.16 0  0.21 0.16 0  0.24 0.16 0  0.27 0.16 0  0.3 0.16 0  0.33 0.16 0  0.36 0.16 0  0.39 0.16 0  0.42 0.16 0  0.45 0.16 0  0.48 0.16 0  0.51 0.16 0  0.54 0.16 0  0.57 0.16 0  0.6 0.16 0  0.63 0.16 0  0.66 0.16 0  0.6899999999999999 0.16 0  0.72 0.16 0  0.75 0.16 0  0.78 0.16 0  0.8100000000000001 0.16 0  0.84 0.16 0  0.87 0.16 0  0.9 0.16 0  0.93 0.16 0  0.96 0.16 0  0.99 0.16 0  1.02 0.16 0  1.05 0.16 0  1.08 0.16 0  1.11 0.16 0  1.14 0.16 0  1.17 0.16 0  1.2 0.16 0  1.23 0.16 0  1.26 0.16 0  1.29 0.16 0  1.32 0.16 0  1.35 0.16 0  1.38 0.16 0  1.41 0.16 0  1.44 0.16 0  1.47 0.16 0  1.5 0.16 0  0 0.18 0  0.03 0.18 0  0.06 0.18 0  0.09 0.18 0  0.12 0.18 0  0.15 0.18 0  0.18 0.18 0  0.21 0.18 0  0.24 0.18 0  0.27 0.18 0  0.3 0.18 0  0.33 0.18 0  0.36 0.18 0  0.39 0.18 0  0.42 0.18 0  0.45 0.18 0  0.48 0.18 0  0.51 0.18 0  0.54 0.18 0  0.57 0.18 0  0.6 0.18 0  0.63 0.18 0  0.66 0.18 0  0.6899999999999999 0.18 0  0.72 0.18 0  0.75 0.18 0  0.78 0.18 0  0.8100000000000001 0.18 0  0.84 0.18 0  0.87 0.18 0  0.9 0.18 0  0.93 0.18 0  0.96 0.18 0  0.99 0.18 0  1.02 0.18 0  1.05 0.18 0  1.08 0.18 0  1.11 0.18 0  1.14 0.18 0  1.17 0.18 0  1.2 0.18 0  1.23 0.18 0  1.26 0.18 0  1.29 0.18 0  1.32 0.18 0  1.35 0.18 0  1.38 0.18 0  1.41 0.18 0  1.44 0.18 0  1.47 0.18 0  1.5 0.18 0  0 0.2 0  0.03 0.2 0  0.06 0.2 0  0.09 0.2 0  0.12 0.2 0  0.15 0.2 0  0.18 0.2 0  0.21 0.2 0  0.24 0.2 0  0.27 0.2 0  0.3 0.2 0  0.33 0.2 0  0.36 0.2 0  0.39 0.2 0  0.42 0.2 0  0.45 0.2 0  0.48 0.2 0  0.51 0.2 0  0.54 0.2 0  0.57 0.2 0  0.6 0.2 0  0.63 0.2 0  0.66 0.2 0  0.6899999999999999 0.2 0  0.72 0.2 0  0.75 0.2 0  0.78 0.2 0  0.8100000000000001 0.2 0  0.84 0.2 0  0.87 0.2 0  0.9 0.2 0  0.93 0.2 0  0.96 0.2 0  0.99 0.2 0  1.02 0.2 0  1.05 0.2 0  1.08 0.2 0  1.11 0.2 0  1.14 0.2 0  1.17 0.2 0  1.2 0.2 0  1.23 0.2 0  1.26 0.2 0  1.29 0.2 0  1.32 0.2 0  1.35 0.2 0  1.38 0.2 0  1.41 0.2 0  1.44 0.2 0  1.47 0.2 0  1.5 0.2 0  0 0.22 0  0.03 0.22 0  0.06 0.22 0  0.09 0.22 0  0.12 0.22 0  0.15 0.22 0  0.18 0.22 0  0.21 0.22 0  0.24 0.22 0  0.27 0.22 0  0.3 0.22 0  0.33 0.22 0  0.36 0.22 0  0.39 0.22 0  0.42 0.22 0  0.45 0.22 0  0.48 0.22 0  0.51 0.22 0  0.54 0.22 0  0.57 0.22 0  0.6 0.22 0  0.63 0.22 0  0.66 0.22 0  0.6899999999999999 0.22 0  0.72 0.22 0  0.75 0.22 0  0.78 0.22 0  0.8100000000000001 0.22 0  0.84 0.22 0  0.87 0.22 0  0.9 0.22 0  0.93 0.22 0  0.96 0.22 0  0.99 0.22 0  1.02 0.22 0  1.05 0.22 0  1.08 0.22 0  1.11 0.22 0  1.14 0.22 0  1.17 0.22 0  1.2 0.22 0  1.23 0.22 0  1.26 0.22 0  1.29 0.22 0  1.32 0.22 0  1.35 0.22 0  1.38 0.22 0  1.41 0.22 0  1.44 0.22 0  1.47 0.22 0  1.5 0.22 0  0 0.24 0  0.03 0.24 0  0.06 0.24 0  0.09 0.24 0  0.12 0.24 0  0.15 0.24 0  0.18 0.24 0  0.21 0.24 0  0.24 0.24 0  0.27 0.24 0  0.3 0.24 0  0.33 0.24 0  0.36 0.24 0  0.39 0.24 0  0.42 0.24 0  0.45 0.24 0  0.48 0.24 0  0.51 0.24 0  0.54 0.24 0  0.57 0.24 0  0.6 0.24 0  0.63 0.24 0  0.66 0.24 0  0.6899999999999999 0.24 0  0.72 0.24 0  0.75 0.24 0  0.78 0.24 0  0.8100000000000001 0.24 0  0.84 0.24 0  0.87 0.24 0  0.9 0.24 0  0.93 0.24 0  0.96 0.24 0  0.99 0.24 0  1.02 0.24 0  1.05 0.24 0  1.08 0.24 0  1.11 0.24 0  1.14 0.24 0  1.17 0.24 0  1.2 0.24 0  1.23 0.24 0  1.26 0.24 0  1.29 0.24 0  1.32 0.24 0  1.35 0.24 0  1.38 0.24 0  1.41 0.24 0  1.44 0.24 0  1.47 0.24 0  1.5 0.24 0  0 0.26 0  0.03 0.26 0  0.06 0.26 0  0.09 0.26 0  0.12 0.26 0  0.15 0.26 0  0.18 0.26 0  0.21 0.26 0  0.24 0.26 0  0.27 0.26 0  0.3 0.26 0  0.33 0.26 0  0.36 0.26 0  0.39 0.26 0  0.42 0.26 0  0.45 0.26 0  0.48 0.26 0  0.51 0.26 0  0.54 0.26 0  0.57 0.26 0  0.6 0.26 0  0.63 0.26 0  0.66 0.26 0  0.6899999999999999 0.26 0  0.72 0.26 0  0.75 0.26 0  0.78 0.26 0  0.8100000000000001 0.26 0  0.84 0.26 0  0.87 0.26 0  0.9 0.26 0  0.93 0.26 0  0.96 0.26 0  0.99 0.26 0  1.02 0.26 0  1.05 0.26 0  1.08 0.26 0  1.11 0.26 0  1.14 0.26 0  1.17 0.26 0  1.2 0.26 0  1.23 0.26 0  1.26 0.26 0  1.29 0.26 0  1.32 0.26 0  1.35 0.26 0  1.38 0.26 0  1.41 0.26 0  1.44 0.26 0  1.47 0.26 0  1.5 0.26 0  0 0.28 0  0.03 0.28 0  0.06 0.28 0  0.09 0.28 0  0.12 0.28 0  0.15 0.28 0  0.18 0.28 0  0.21 0.28 0  0.24 0.28 0  0.27 0.28 0  0.3 0.28 0  0.33 0.28 0  0.36 0.28 0  0.39 0.28 0  0.42 0.28 0  0.45 0.28 0  0.48 0.28 0  0.51 0.28 0  0.54 0.28 0  0.57 0.28 0  0.6 0.28 0  0.63 0.28 0  0.66 0.28 0  0.6899999999999999 0.28 0  0.72 0.28 0  0.75 0.28 0  0.78 0.28 0  0.8100000000000001 0.28 0  0.84 0.28 0  0.87 0.28 0  0.9 0.28 0  0.93 0.28 0  0.96 0.28 0  0.99 0.28 0  1.02 0.28
[...]
<PointData  Scalars="ControlVisualisation"> 
<DataArray  type="Float64"  Name="ControlVisualisation"  format="ascii">4.9758252630900376e-02  3.3793024008616064e-02  3.3852607517529450e-02  3.3980584563290915e-02  3.4176415165938390e-02  3.4409071971897479e-02  3.4642168387625377e-02  3.4856158041765062e-02  3.5050034376571088e-02  3.5229144364492926e-02  3.5391273311291063e-02  3.5524082340778806e-02  3.5617020420969245e-02  3.5672896485777546e-02  3.5705701838600154e-02  3.5729922734858068e-02  3.5753493055874018e-02  3.5777964974450800e-02  3.5801988797791721e-02  3.5824092615951063e-02  3.5843585920126826e-02  3.5860261860173256e-02  3.5873875552839114e-02  3.5883919155863343e-02  3.5889725898764380e-02  3.5890717077991401e-02  3.5886616137442671e-02  3.5877542854692496e-02  3.5863976541403185e-02  3.5846629341634996e-02  3.5826324349019376e-02  3.5804020077533756e-02  3.5781055942927693e-02  3.5759358143827510e-02  3.5740786814258671e-02  3.5724614443956471e-02  3.5703535914910364e-02  3.5662109090809371e-02  3.5583266162352183e-02  3.5461242295482760e-02  3.5307048758715549e-02  3.5136733546949843e-02  3.4954905422030010e-02  3.4753231640821843e-02  3.4525276058878035e-02  3.4283102924440166e-02  3.4061250450499757e-02  3.3899181947008111e-02  3.3811953007153318e-02  3.3780230168267270e-02  1.0759387206295533e-01  3.3785420594204016e-02  1.7424466055848006e-02  1.7548131930897010e-02  1.7831827809929361e-02  1.8295161485560003e-02  1.8879794305803083e-02  1.9494492350741174e-02  2.0077869908195392e-02  2.0619021642113305e-02  2.1133507787044439e-02  2.1621080821576179e-02  2.2045296285265022e-02  2.2362131235422460e-02  2.2565047662282435e-02  2.2690030235664016e-02  2.2782230914300781e-02  2.2868117118696581e-02  2.2952869110215178e-02  2.3031451795871672e-02  2.3098571711536457e-02  2.3152469474348493e-02  2.3194236105027761e-02  2.3225766279150507e-02  2.3248303318340050e-02  2.3262050678427289e-02  2.3266484018285783e-02  2.3260842004651196e-02  2.3244464559177030e-02  2.3216887431763159e-02  2.3177785972389904e-02  2.3127012558455732e-02  2.3065086347421975e-02  2.2994353702257966e-02  2.2920223886809882e-02  2.2850245095925509e-02  2.2787472661343164e-02  2.2717331830345442e-02  2.2598101750152470e-02  2.2375903204496023e-02  2.2026792601288491e-02  2.1581713836891732e-02  2.1093899490272305e-02  2.0585577661379747e-02  2.0038280346496289e-02  1.9432826117411657e-02  1.8795288045062385e-02  1.8208045539358307e-02  1.7767829906082260e-02  1.7516322200858456e-02  1.7413307546576974e-02  3.3779032601270902e-02  3.3804832687197826e-02  1.7472078262554067e-02  1.7694513956059199e-02  1.8213404704816465e-02  1.9097751805583166e-02  2.0252139180432518e-02  2.1481808887706715e-02  2.2627924411162698e-02  2.3653423448987385e-02  2.4612042555898366e-02  2.5528521188188241e-02  2.6319036694993005e-02  2.6867234046766327e-02  2.7162771183418592e-02  2.7309229095912452e-02  2.7419676774306814e-02  2.7547797504123173e-02  2.7694263548740428e-02  2.7839961874339920e-02  2.7968814050981443e-02  2.8074312637841881e-02  2.8156939544730961e-02  2.8219522965979352e-02  2.8264096045683449e-02  2.8290956932087236e-02  2.8299167832344846e-02  2.8287459685747050e-02  2.8254888529190322e-02  2.8201088140177060e-02  2.8126303736859794e-02  2.8031574815333891e-02  2.7919594097868958e-02  2.7796778326686120e-02  2.7676060876960402e-02  2.7576472808895358e-02  2.7510423782112246e-02  2.7451554961637474e-02  2.7303478443824341e-02  2.6933996226261969e-02  2.6297748059798436e-02  2.5498356581183566e-02  2.4660508621905011e-02  2.3782158590892014e-02  2.2760524719699225e-02  2.1542837544383742e-02  2.0228731984528743e-02  1.9032481230380805e-02  1.8158480540340780e-02  1.7668315736790383e-02  1.7461062942386543e-02  3.3793115398703832e-02  3.3826741189873714e-02  1.7548584804021446e-02  1.7946322649030694e-02  1.8869379004485636e-02  2.0429414921382144e-02  2.2359016720279117e-02  2.4189072116269413e-02  2.5617009553545494e-02  2.6712832600382246e-02  2.7777184855253309e-02  2.8980736704863185e-02  3.0097569855990620e-02  3.0712078543338621e-02  3.0735673202587584e-02  3.0470784293670165e-02  3.0233290809144206e-02  3.0144758123182624e-02  3.0185240004162534e-02  3.0294455856211322e-02  3.0424127685822946e-02  3.0548335429104411e-02  3.0656702215948274e-02  3.0745332362760881e-02  3.0811180920041269e-02  3.0850543573414432e-02  3.0860090319432872e-02  3.0838449992122818e-02  3.0787099993567896e-02  3.0710389770602853e-02  3.0615276406226796e-02  3.0511544286147420e-02  3.0413262495039648e-02  3.0342458507966387e-02  3.0335162144829547e-02  3.0443730034536119e-02  3.0714104577296879e-02  3.1104340015427612e-02  3.1359105690115185e-02  3.1038912872549243e-02  2.9952622170398312e-02  2.8533734611528527e-02  2.7387949061806562e-02  2.6623071198975681e-02  2.5803137923365495e-02  2.4413857357388810e-02  2.2405604318761860e-02  2.0294720412249272e-02  1.8714987958442311e-02  1.7865538337033905e-02  1.7522487224858479e-02  3.3815643951659549e-02  3.3836482735115588e-02  1.7696485596304594e-02  1.8734272264919600e-02  2.1126473736306082e-02  2.4737529413744054e-02  2.8282673073099038e-02  3.0453940462084078e-02  3.1303223415679496e-02  3.1857101145020286e-02  3.3063310809711283e-02  3.5073002105371127e-02  3.6879547787730595e-02  3.7201055242761204e-02  3.6041964233422555e-02  3.4437582145084508e-02  3.3165471927365360e-02  3.2403427763102913e-02  3.2037127678099221e-02  3.1912749313070775e-02  3.1919758791500032e-02  3.1992743308111110e-02  3.2094520506611712e-02  3.2201677805381190e-02  3.2296377077432090e-02  3.2363772234456641e-02  3.2392960978105755e-02  3.2378913302862050e-02  3.2323621249453399e-02  3.2236293201153017e-02  3.2133606517884751e-02  3.2040859273175543e-02  3.1993966123122761e-02  3.2043443291036207e-02  3.2264972566210248e-02  3.2777380064254041e-02  3.3742850902531971e-02  3.5270429423170081e-02  3.7110528294587060e-02  3.8281513335409807e-02  3.7551471102805337e-02  3.5107731070666691e-02  3.2639624432827585e-02  3.1272924765380981e-02  3.0767468039859264e-02  3.0131718748881094e-02  2.8178569001128105e-02  2.4521791764086250e-02  2.0713561911858466e-02  1.8442501746342481e-02  1.7612548473325603e-02  3.3830608735428341e-02  3.3849032384397383e-02  1.8215879412671662e-02  2.2027107472274581e-02  2.9700093360516058e-02  3.8882767852541002e-02  4.4329846389913601e-02  4.5102951578559806e-02  4.4119318496854548e-02  4.2837258101353561e-02  4.2383907213560043e-02  4.3955129338936749e-02  4.6188069358807288e-02  4.6092723507793656e-02  4.3340841571788635e-02  3.9948636755736615e-02  3.7300469193212935e-02  3.5594267774120350e-02  3.4584545050218449e-02  3.4025530262882429e-02  3.3757171952060155e-02  3.3678953534695223e-02  3.3719875788160825e-02  3.3823871045672325e-02  3.3945325923858384e-02  3.4048682513333865e-02  3.4109180934989283e-02  3.4113553372325363e-02  3.4060365317692486e-02  3.3960724597522432e-02  3.3840747700089831e-02  3.3745617336599976e-02  3.3741560023226320e-02  3.3912973811774050e-02  3.4362296411851692e-02  3.5227307203809323e-02  3.6710369223936709e-02  3.9050848747005165e-02  4.2261636186998283e-02  4.5532409811611427e-02  4.7191720269934186e-02  4.6621654461790521e-02  4.5455499644967076e-02  4.5045899356782118e-02  4.4742878740939837e-02  4.3541208888637856e-02  4.1435372347811382e-02  3.7317196839055516e-02  2.9138211431881771e-02  2.0971129882621561e-02  1.7846460084257318e-02  3.3828926428353924e-02  3.4132943776379765e-02  2.0438506360107942e-02  3.4153512872296808e-02  5.4131015660551167e-02  6.2179731925223941e-02  7.3564440107796836e-02  8.1654722867410434e-02  8.2968752606517468e-02  7.7912815145928516e-02  6.7878711917507106e-02  5.8489000315139171e-02  5.3859907077210972e-02  5.1930104906850696e-02  4.9715662744916553e-02  4.6940658250423470e-02  4.4278331242439406e-02  4.2058763519610694e-02  4.0358753665152958e-02  3.9155223900543913e-02  3.8382101795479212e-02  3.7963071987416788e-02  3.7815326565288278e-02  3.7844635912491327e-02  3.7952992776111402e-02  3.8055848197159237e-02  3.8096976105485111e-02  3.8055885026366004e-02  3.7949033431563257e-02  3.7827069926720809e-02  3.7769159922105659e-02  3.7873638887273950e-02  3.8241979408751639e-02  3.8953305637240927e-02  4.0034153652583684e-02  4.1441647858096994e-02  4.3091607735048380e-02  4.4949485547744333e-02  4.7063066025392869e-02  4.9386257201956420e-02  5.2076771446646970e-02  5.6547497396552217e-02  6.4478795843844083e-02  7.5215267294450022e-02  8.5015085534296458e-02  8.8326576540560670e-02  8.2542125399432842e-02  7.0822928741669289e-02  5.5547933498971712e-02  3.7280064769857013e-02  1.9771710501383270e-02  3.3844539270033329e-02  3.5573801250049747e-02  3.0491267902291726e-02  5.3434757399621918e-02  1.4369788014130930e-01  2.1555432654331236e-01  2.1694628426507270e-01  1.8118654555951860e-01  1.4717770086784901e-01  1.1682815423317042e-01  9.1304915761102973e-02  7.0517277656007363e-02  5.6017825336393018e-02  4.8384321140969376e-02  4.6628560933373926e-02  4.8511983757204412e-02  5.0809869525450947e-02  5.1286050118799199e-02  4.9827193806364453e-02  4.7396426311171885e-02  4.4901372391559939e-02  4.2883501626495957e-02  4.1543417094351859e-02  4.0823049037350963e-02  4.0529565479241997e-02  4.0461080948829900e-02  4.0487009800976415e-02  4.0577520013255389e-02  4.0796883672303809e-02  4.1269543996439111e-02  4.2121341305646112e-02  4.3408119152035053e-02  4.5057878373895618e-02  4.6829129127780755e-02  4.8248552145082085e-02  4.8601508877311447e-02  4.7348166736837116e-02  4.5091395536355341e-02  4.3758283233409558e-02  4.4919913481339044e-02  4.8955943662326584e-02  5.7124598735594417e-02  7.3971626906273708e-02  1.0667411880224438e-01  1.5565747964885099e-01  2.0433004069383015e-01  2.2586842848034960e-01  2.0060176335822166e-01  1.5011235379266125e-01  1.0409755037532314e-01  3.2810883919310224e-02  3.4236670276712379e-02  5.1309339917405695e-02  4.7360716285076432e-02  3.9919027639127636e-01  5.3109874985473593e-01  4.9757388078635412e-01  5.5531543347419587e-01  5.6209043114586843e-01  4.9133286324585762e-01  3.8591049723240933e-01  2.8301868746986381e-01  2.0000725647118628e-01  1.3549697927470050e-01  8.4840489091966328e-02  4.7675341007064803e-02  2.7138926379413758e-02  2.3826068736439610e-02  3.1859508051517341e-02  4.2169117800926276e-02  4.8778664161722322e-02  5.0824558598766875e-02  5.0044894031788162e-02  4.8213263649567094e-02  4.6375540779915042e-02  4.4992375324553135e-02  4.4194377419286023e-02  4.3969082719748281e-02  4.4257949373903385e-02  4.4970684856741397e-02  4.5933517585401859e-02  4.6780890628302069e-02  4.6815496783132488e-02  4.4954086306997494e-02  4.0135173935570152e-02  3.2634816292611939e-02  2.5594344599669389e-02  2.4594967840161255e-02  3.4631961803300998e-02  5.7114011464751979e-02  8.9939306276738878e-02  1.3167030850310474e-01  1.8676397635629732e-01  2.6451378001858583e-01  3.6582773607684133e-01  4.6709009924442990e-01  5.3304432256750367e-01  5.5485260609872922e-01  5.4988213404125097e-01  5.3888698788698464e-01  4.1569362381537384e-01  1.0924810588934464e-01  4.4048413197484662e-02  4.4226249319448585e-01  4.9246701919349251e-01  6.0456804320838353e-01  6.4346338194714747e-01  5.8712162062351769e-01  5.5591844382856703e-01  5.5560915327498139e-01  5.3104451365804484e-01  4.7610187385920266e-01  4.0281069090957788e-01  3.3230875909984287e-01  2.7271976668412468e-01  2.2019646974457258e-01  1.6844520854699840e-01  1.1531050170435241e-01  6.5681515709682892e-02  2.8339377862402482e-02  8.2119841976415753e-03  2.6612419232561468e-03  5.0283815276582489e-03  9.6044508032620823e-03  1.3511771983596980e-02  1.6009759644840707e-02  1.7269509553346385e-02  1.7637137665033199e-02  1.7369385496878963e-02  1.6562138285832480e-02  1.5145337969411907e-02  1.2961315607485660e-02  9.9577054814679739e-03  6.5331782034881020e-03  4.0610080510715962e-03  5.4089501321903793e-03  1.4810303704316879e-02  3.6112300127527919e-02  6.9587854685845801e-02  1.1062723784830304e-01  1.5350673841086487e-01  1.9662625938414691e-01  2.4358744982870295e-01  2.9993148846752060e-01  3.6606822520281901e-01  4.3082173895891007e-01  4.7980580759029429e-01  5.1424471154613882e-01  5.4868709290771134e-01  5.9042525317830563e-01  6.4879602043759788e-01  6.7891816180682119e-01  6.0872673256895082e-01  3.7084450170188743e-01  9.0421927186931372e-01  9.0197248673453267e-01  8.2582328185934151e-01  7.6225943610764479e-01  7.0491493421943396e-01  6.4201176901710555e-01  5.8806121262432365e-01  5.3941523617457510e-01  4.8949938274078497e-01  4.3150003476161369e-01  3.7151462127494472e-01  3.1834823215504038e-01  2.7379812957802896e-01  2.3546971966558744e-01  2.0023149336089816e-01  1.6518077450792953e-01  1.2858417879346482e-01  9.1432421833089750e-02  5.7494173884646560e-02  3.0948937428776413e-02  1.3659180772293389e-02  4.5321089129011782e-03  8.9133176257624736e-04  7.1672635272482244e-05  1.9430672399750604e-04  2.7395118497403059e-04  1.0336981629445463e-04  1.5087320689569084e-04  1.5203826753168725e-03  5.9120205536906945e-03  1.5393512967002587e-02  3.1723366809540132e-02  5.5262519857474268e-02  8.4276043380767190e-02  1.1572206049417350e-01  1.4731955769414332e-01  1.7903734996470319e-01  2.1273390697963859e-01  2.5101245707923747e-01  2.9667527543315331e-01  3.5123436747664305e-01  4.1122423079089265e-01  4.6856969778685192e-01  5.1997330671168129e-01  5.7097578221399337e-01  6.2593705467831129e-01  6.8601761694609709e-01  7.5657835418785380e-01  8.3642521636688971e-01  9.0946479417201609e-01  8.7394876228033014e-01  9.6154775583835428e-01  9.6909094438548360e-01  9.4199135317798177e-01  8.9328527263587332e-01  8.3552580937059817e-01  7.8042163225697336e-01  7.1750720997432471e-01  6.5260053691175535e-01  5.9248039393326668e-01  5.3016735567876649e-01  4.6340974508865856e-01  3.9848697670194744e-01  3.4024886129893495e-01  2.8969298825410872e-01  2.4655278644587730e-01  2.1025169986323988e-01  1.7951039843043148e-01  1.5264241962390321e-01  1.2850273428565179e-01  1.0696772858884604e-01  8.8632269771817845e-02  7.4150834958299133e-02  6.3710623306240444e-02  5.6915156514167370e-02  5.3046866396565390e-02  5.1463986077100732e-02  5.1901384238481590e-02  5.4571200168720774e-02  6.0055897386648099e-02  6.9040764992916032e-02  8.1989041103535887e-02  9.8918688433599772e-02  1.1943876309097157e-01  1.4309752175987672e-01  1.6988913564423580e-01  2.0054636280722915e-01  2.3628225344174461e-01  2.7822166192134556e-01  3.2727551458891629e-01  3.8421775453521584e-01  4.4823613915436061e-01  5.1489540186468008e-01  5.7917973561361114e-01  6.4202499239085875e-01  7.0626029483771280e-01  7.6786224020563165e-01  8.2995793598963374e-01  8.9998599413022884e-01  9.4817209258929269e-01  9.7078037531887384e-01  9.5365432750685397e-01  9.7210592723025191e-01  9.8093823374137501e-01  9.6676829339948578e-01  9.3769142482262802e-01  8.9682104651371830e-01  8.5826974207330498e-01  8.1625733794162159e-01  7.6357236215599100e-01  7.0724741138435376e-01  6.4736953567386935e-01  5.8105625098919733e-01  5.1144909749704592e-01  4.4366518862463888e-01  3.8046125001803199e-01  3.2327119953909700e-01  2.7331786277557579e-01  2.3115065652132857e-01  1.9627557724337349e-01  1.6771040365739903e-01  1.4467897948795394e-01  1.2670185251035471e-01  1.1330950631211414e-01  1.0386928247970489e-01  9.7638988587860048e-02  9.3925281476771705e-02  9.2248507133135454e-02  9.2465687261126805e-02  9.4815175117243494e-02  9.9864053986268519e-02  1.0837216657204066e-01  1.2111909661508616e-01  1.3876905711672560e-01  1.6185857114103805e-01  1.9091697983058456e-01  2.2654557109270881e-01  2.6920197431464532e-01  3.1876383253976331e-01  3.7443039093358521e-01  4.3526822150670880e-01  5.0047688766980025e-01  5.6812223340586376e-01  6.3418812612283293e-01  6.9591157478928956e-01  7.5457741527588551e-01  8.0860125247513626e-01  8.5393466760614367e-01  8.9838477181699306e-01  9.3980619771663765e-01  9.6752458085772730e-01  9.8111625555514337e-01  9.7047099823582661e-01  9.7058065587677556e-01  9.8145412812827859e-01  9.6910875374047933e-01  9.4508458000994888e-01  9.1309223442137677e-01  8.8389633533612633e-01  8.5609182129663464e-01  8.2128182310303488e-01  7.7980523909960942e-01  7.3208522942918919e-01  6.7632249048158366e-01  6.1412049197783614e-01  5.4919616908548141e-01  4.8419915763352617e-01  4.2111871004986601e-01  3.6223011111376635e-01  3.0958806988026522e-01  2.6419890941233698e-01  2.2601175605475984e-01  1.9451297372655391e-01  1.6918505419006361e-01  1.4957053280740190e-01  1.3516070583440290e-01  1.2535084665474971e-01  1.1952575085888506e-01  1.1721998603446798e-01  1.1826614330908541e-01  1.2286225481414215e-01  1.3153252450030536e-01  1.4500276742073429e-01  1.6404186726606690e-01  1.8932844043518215e-01  2.2138862717201205e-01  2.6058192545905889e-01  3.0698837840277432e-01  3.6007579346274016e-01  4.1839349587553709e-01  4.7983910090883697e-01  5.4252096166231156e-01  6.0515503140427851e-01  6.6602771988800491e-01  7.2219360025378687e-01  7.7191783160773797e-01  8.1627151675015908e-01  8.5408145010239556e-01  8.8324392910939253e-01  9.1198193341668421e-01  9.4385217908904795e-01  9.6835730465039316e-01  9.8117970170220403e-01  9.7213996216086584e-01  9.5407694436451673e-01  9.7224645329061621e-01  9.5580345648373843e-01  9.2924035388504922e-01  9.0061153214376954e-01  8.7949341547624482e-01  8.6067473242032477e-01  8.3690379430099027e-01  8.0809160375264932e-01  7.7360485814135538e-01  7.3179260604108032e-01  6.8344613585575853e-01  6.3044468791049857e-01  5.7400807275908161e-01  5.1546483984327673e-01  4.5711851516794477e-01  4.0164934989630541e-01  3.5103272821793396e-01  3.0618140125411952e-01  2.6733148009241769e-01  2.3452399809946733e-01  2.0780295942072707e-01  1.8718595924292389e-01  1.7259514150653191e-01  1.6385891985744372e-01  1.6078845971745764e-01  1.6327421033252082e-01  1.7134438276076372e-01  1.8515775197780557e-01  2.0494451618763360e-01  2.3093737485104215e-01  2.6332564449708562e-01  3.0221857122530071e-01  3.4754369190058854e-01  3.9877923382646902e-01  4.5456028633150919e-01  5.1254653994677346e-01  5.7002068637888592e-01  6.2498701042680160e-01  6.7666832977647973e-01  7.2456879786720607e-01  7.6724688494102045e-01  8.0359765727044907e-01  8.3500092105555046e-01  8.6201005134251063e-01  8.8176893006224721e-01  8.9910588714896877e-01  9.2414038503268769e-01  9.5177102291165416e-01  9.7084634316209772e-01  9.6182502811405479e-01  8.7700639245141121e-01  9.2278828256779588e-01  8.8544927736142653e-01  8.5406757236209951e-01  8.4105196653259684e-01  8.3631843992002086e-01  8.2875257335168662e-01  8.1548830539041817e-01  7.9779597198943053e-01  7.7524631662014309e-01  7.4725882345127159e-01  7.1450636667447998e-01  6.7729401213414564e-01  6.3523211236443777e-01  5.8863717050444309e-01  5.3931380706361143e-01  4.8983136847546704e-01  4.4233115880692897e-01  3.9804447787810610e-01  3.5761927039474506e-01  3.2162534364751616e-01  2.9078050271824063e-01  2.6588283524534806e-01  2.4763872128621292e-01  2.3653724594105094e-01  2.3280925492093821e-01  2.3644319675767750e-01  2.4722497865023191e-01  2.6478511794193660e-01  2.8865229549957305e-01  3.1832361465322445e-01  3.5334447261289592e-01  3.9333457918175085e-01  4.3785308725050009e-01  4.8604497912352962e-01  5.3622289920085198e-01  5.8584181720009032e-01  6.3224709885805552e-01  6.7380946535891617e-01  7.1043119559939716e-01  7.4280773929288435e-01  7.7098315038712373e-01  7.9428776714295279e-01  8.1360444282317368e-01  8.3131450457441503e-01  8.4491472032607051e-01  8.5291117053123522e-01  8.6042865986195227e-01  8.8435704930113568e-01  9.1834390487513784e-01  9.0626244280682455e-01  3.9119427238930160e-01  6.9107223759915903e-01  7.4326806333876672e-01  7.2617056694321436e-01  7.1449205823770001e-01  7.2779123617393859e-01  7.4110250937269317e-01  7.4676879182638423e-01  7.4463245834863856e-01  7.3618481054588925e-01  7.2353470417285415e-01  7.0783450433805972e-01  6.882067678