<?xml version="1.0"?>
<VTKFile type="UnstructuredGrid"  version="0.1"  >
<UnstructuredGrid>
<Piece  NumberOfPoints="2601" NumberOfCells="5000">
<Points>
<DataArray  type="Float64"  NumberOfComponents="3"  format="ascii">0 0 0  0.03 0 0  0.06 0 0  0.09 0 0  0.12 0 0  0.15 0 0  0.18 0 0  0.21 0 0  0.24 0 0  0.27 0 0  0.3 0 0  0.33 0 0  0.36 0 0  0.39 0 0  0.42 0 0  0.45 0 0  0.48 0 0  0.51 0 0  0.54 0 0  0.57 0 0  0.6 0 0  0.63 0 0  0.66 0 0  0.6899999999999999 0 0  0.72 0 0  0.75 0 0  0.78 0 0  0.8100000000000001 0 0  0.84 0 0  0.87 0 0  0.9 0 0  0.93 0 0  0.96 0 0  0.99 0 0  1.02 0 0  1.05 0 0  1.08 0 0  1.11 0 0  1.14 0 0  1.17 0 0  1.2 0 0  1.23 0 0  1.26 0 0  1.29 0 0  1.32 0 0  1.35 0 0  1.38 0 0  1.41 0 0  1.44 0 0  1.47 0 0  1.5 0 0  0 0.02 0  0.03 0.02 0  0.06 0.02 0  0.09 0.02 0  0.12 0.02 0  0.15 0.02 0  0.18 0.02 0  0.21 0.02 0  0.24 0.02 0  0.27 0.02 0  0.3 0.02 0  0.33 0.02 0  0.36 0.02 0  0.39 0.02 0  0.42 0.02 0  0.45 0.02 0  0.48 0.02 0  0.51 0.02 0  0.54 0.02 0  0.57 0.02 0  0.6 0.02 0  0.63 0.02 0  0.66 0.02 0  0.6899999999999999 0.02 0  0.72 0.02 0  0.75 0.02 0  0.78 0.02 0  0.8100000000000001 0.02 0  0.84 0.02 0  0.87 0.02 0  0.9 0.02 0  0.93 0.02 0  0.96 0.02 0  0.99 0.02 0  1.02 0.02 0  1.05 0.02 0  1.08 0.02 0  1.11 0.02 0  1.14 0.02 0  1.17 0.02 0  1.2 0.02 0  1.23 0.02 0  1.26 0.02 0  1.29 0.02 0  1.32 0.02 0  1.35 0.02 0  1.38 0.02 0  1.41 0.02 0  1.44 0.02 0  1.47 0.02 0  1.5 0.02 0  0 0.04 0  0.03 0.04 0  0.06 0.04 0  0.09 0.04 0  0.12 0.04 0  0.15 0.04 0  0.18 0.04 0  0.21 0.04 0  0.24 0.04 0  0.27 0.04 0  0.3 0.04 0  0.33 0.04 0  0.36 0.04 0  0.39 0.04 0  0.42 0.04 0  0.45 0.04 0  0.48 0.04 0  0.51 0.04 0  0.54 0.04 0  0.57 0.04 0  0.6 0.04 0  0.63 0.04 0  0.66 0.04 0  0.6899999999999999 0.04 0  0.72 0.04 0  0.75 0.04 0  0.78 0.04 0  0.8100000000000001 0.04 0  0.84 0.04 0  0.87 0.04 0  0.9 0.04 0  0.93 0.04 0  0.96 0.04 0  0.99 0.04 0  1.02 0.04 0  1.05 0.04 0  1.08 0.04 0  1.11 0.04 0  1.14 0.04 0  1.17 0.04 0  1.2 0.04 0  1.23 0.04 0  1.26 0.04 0  1.29 0.04 0  1.32 0.04 0  1.35 0.04 0  1.38 0.04 0  1.41 0.04 0  1.44 0.04 0  1.47 0.04 0  1.5 0.04 0  0 0.06 0  0.03 0.06 0  0.06 0.06 0  0.09 0.06 0  0.12 0.06 0  0.15 0.06 0  0.18 0.06 0  0.21 0.06 0  0.24 0.06 0  0.27 0.06 0  0.3 0.06 0  0.33 0.06 0  0.36 0.06 0  0.39 0.06 0  0.42 0.06 0  0.45 0.06 0  0.48 0.06 0  0.51 0.06 0  0.54 0.06 0  0.57 0.06 0  0.6 0.06 0  0.63 0.06 0  0.66 0.06 0  0.6899999999999999 0.06 0  0.72 0.06 0  0.75 0.06 0  0.78 0.06 0  0.8100000000000001 0.06 0  0.84 0.06 0  0.87 0.06 0  0.9 0.06 0  0.93 0.06 0  0.96 0.06 0  0.99 0.06 0  1.02 0.06 0  1.05 0.06 0  1.08 0.06 0  1.11 0.06 0  1.14 0.06 0  1.17 0.06 0  1.2 0.06 0  1.23 0.06 0  1.26 0.06 0  1.29 0.06 0  1.32 0.06 0  1.35 0.06 0  1.38 0.06 0  1.41 0.06 0  1.44 0.06 0  1.47 0.06 0  1.5 0.06 0  0 0.08 0  0.03 0.08 0  0.06 0.08 0  0.09 0.08 0  0.12 0.08 0  0.15 0.08 0  0.18 0.08 0  0.21 0.08 0  0.24 0.08 0  0.27 0.08 0  0.3 0.08 0  0.33 0.08 0  0.36 0.08 0  0.39 0.08 0  0.42 0.08 0  0.45 0.08 0  0.48 0.08 0  0.51 0.08 0  0.54 0.08 0  0.57 0.08 0  0.6 0.08 0  0.63 0.08 0  0.66 0.08 0  0.6899999999999999 0.08 0  0.72 0.08 0  0.75 0.08 0  0.78 0.08 0  0.8100000000000001 0.08 0  0.84 0.08 0  0.87 0.08 0  0.9 0.08 0  0.93 0.08 0  0.96 0.08 0  0.99 0.08 0  1.02 0.08 0  1.05 0.08 0  1.08 0.08 0  1.11 0.08 0  1.14 0.08 0  1.17 0.08 0  1.2 0.08 0  1.23 0.08 0  1.26 0.08 0  1.29 0.08 0  1.32 0.08 0  1.35 0.08 0  1.38 0.08 0  1.41 0.08 0  1.44 0.08 0  1.47 0.08 0  1.5 0.08 0  0 0.1 0  0.03 0.1 0  0.06 0.1 0  0.09 0.1 0  0.12 0.1 0  0.15 0.1 0  0.18 0.1 0  0.21 0.1 0  0.24 0.1 0  0.27 0.1 0  0.3 0.1 0  0.33 0.1 0  0.36 0.1 0  0.39 0.1 0  0.42 0.1 0  0.45 0.1 0  0.48 0.1 0  0.51 0.1 0  0.54 0.1 0  0.57 0.1 0  0.6 0.1 0  0.63 0.1 0  0.66 0.1 0  0.6899999999999999 0.1 0  0.72 0.1 0  0.75 0.1 0  0.78 0.1 0  0.8100000000000001 0.1 0  0.84 0.1 0  0.87 0.1 0  0.9 0.1 0  0.93 0.1 0  0.96 0.1 0  0.99 0.1 0  1.02 0.1 0  1.05 0.1 0  1.08 0.1 0  1.11 0.1 0  1.14 0.1 0  1.17 0.1 0  1.2 0.1 0  1.23 0.1 0  1.26 0.1 0  1.29 0.1 0  1.32 0.1 0  1.35 0.1 0  1.38 0.1 0  1.41 0.1 0  1.44 0.1 0  1.47 0.1 0  1.5 0.1 0  0 0.12 0  0.03 0.12 0  0.06 0.12 0  0.09 0.12 0  0.12 0.12 0  0.15 0.12 0  0.18 0.12 0  0.21 0.12 0  0.24 0.12 0  0.27 0.12 0  0.3 0.12 0  0.33 0.12 0  0.36 0.12 0  0.39 0.12 0  0.42 0.12 0  0.45 0.12 0  0.48 0.12 0  0.51 0.12 0  0.54 0.12 0  0.57 0.12 0  0.6 0.12 0  0.63 0.12 0  0.66 0.12 0  0.6899999999999999 0.12 0  0.72 0.12 0  0.75 0.12 0  0.78 0.12 0  0.8100000000000001 0.12 0  0.84 0.12 0  0.87 0.12 0  0.9 0.12 0  0.93 0.12 0  0.96 0.12 0  0.99 0.12 0  1.02 0.12 0  1.05 0.12 0  1.08 0.12 0  1.11 0.12 0  1.14 0.12 0  1.17 0.12 0  1.2 0.12 0  1.23 0.12 0  1.26 0.12 0  1.29 0.12 0  1.32 0.12 0  1.35 0.12 0  1.38 0.12 0  1.41 0.12 0  1.44 0.12 0  1.47 0.12 0  1.5 0.12 0  0 0.14 0  0.03 0.14 0  0.06 0.14 0  0.09 0.14 0  0.12 0.14 0  0.15 0.14 0  0.18 0.14 0  0.21 0.14 0  0.24 0.14 0  0.27 0.14 0  0.3 0.14 0  0.33 0.14 0  0.36 0.14 0  0.39 0.14 0  0.42 0.14 0  0.45 0.14 0  0.48 0.14 0  0.51 0.14 0  0.54 0.14 0  0.57 0.14 0  0.6 0.14 0  0.63 0.14 0  0.66 0.14 0  0.6899999999999999 0.14 0  0.72 0.14 0  0.75 0.14 0  0.78 0.14 0  0.8100000000000001 0.14 0  0.84 0.14 0  0.87 0.14 0  0.9 0.14 0  0.93 0.14 0  0.96 0.14 0  0.99 0.14 0  1.02 0.14 0  1.05 0.14 0  1.08 0.14 0  1.11 0.14 0  1.14 0.14 0  1.17 0.14 0  1.2 0.14 0  1.23 0.14 0  1.26 0.14 0  1.29 0.14 0  1.32 0.14 0  1.35 0.14 0  1.38 0.14 0  1.41 0.14 0  1.44 0.14 0  1.47 0.14 0  1.5 0.14 0  0 0.16 0  0.03 0.16 0  0.06 0.16 0  0.09 0.16 0  0.12 0.16 0  0.15 0.16 0  0.18 0.16 0  0.21 0.16 0  0.24 0.16 0  0.27 0.16 0  0.3 0.16 0  0.33 0.16 0  0.36 0.16 0  0.39 0.16 0  0.42 0.16 0  0.45 0.16 0  0.48 0.16 0  0.51 0.16 0  0.54 0.16 0  0.57 0.16 0  0.6 0.16 0  0.63 0.16 0  0.66 0.16 0  0.6899999999999999 0.16 0  0.72 0.16 0  0.75 0.16 0  0.78 0.16 0  0.8100000000000001 0.16 0  0.84 0.16 0  0.87 0.16 0  0.9 0.16 0  0.93 0.16 0  0.96 0.16 0  0.99 0.16 0  1.02 0.16 0  1.05 0.16 0  1.08 0.16 0  1.11 0.16 0  1.14 0.16 0  1.17 0.16 0  1.2 0.16 0  1.23 0.16 0  1.26 0.16 0  1.29 0.16 0  1.32 0.16 0  1.35 0.16 0  1.38 0.16 0  1.41 0.16 0  1.44 0.16 0  1.47 0.16 0  1.5 0.16 0  0 0.18 0  0.03 0.18 0  0.06 0.18 0  0.09 0.18 0  0.12 0.18 0  0.15 0.18 0  0.18 0.18 0  0.21 0.18 0  0.24 0.18 0  0.27 0.18 0  0.3 0.18 0  0.33 0.18 0  0.36 0.18 0  0.39 0.18 0  0.42 0.18 0  0.45 0.18 0  0.48 0.18 0  0.51 0.18 0  0.54 0.18 0  0.57 0.18 0  0.6 0.18 0  0.63 0.18 0  0.66 0.18 0  0.6899999999999999 0.18 0  0.72 0.18 0  0.75 0.18 0  0.78 0.18 0  0.8100000000000001 0.18 0  0.84 0.18 0  0.87 0.18 0  0.9 0.18 0  0.93 0.18 0  0.96 0.18 0  0.99 0.18 0  1.02 0.18 0  1.05 0.18 0  1.08 0.18 0  1.11 0.18 0  1.14 0.18 0  1.17 0.18 0  1.2 0.18 0  1.23 0.18 0  1.26 0.18 0  1.29 0.18 0  1.32 0.18 0  1.35 0.18 0  1.38 0.18 0  1.41 0.18 0  1.44 0.18 0  1.47 0.18 0  1.5 0.18 0  0 0.2 0  0.03 0.2 0  0.06 0.2 0  0.09 0.2 0  0.12 0.2 0  0.15 0.2 0  0.18 0.2 0  0.21 0.2 0  0.24 0.2 0  0.27 0.2 0  0.3 0.2 0  0.33 0.2 0  0.36 0.2 0  0.39 0.2 0  0.42 0.2 0  0.45 0.2 0  0.48 0.2 0  0.51 0.2 0  0.54 0.2 0  0.57 0.2 0  0.6 0.2 0  0.63 0.2 0  0.66 0.2 0  0.6899999999999999 0.2 0  0.72 0.2 0  0.75 0.2 0  0.78 0.2 0  0.8100000000000001 0.2 0  0.84 0.2 0  0.87 0.2 0  0.9 0.2 0  0.93 0.2 0  0.96 0.2 0  0.99 0.2 0  1.02 0.2 0  1.05 0.2 0  1.08 0.2 0  1.11 0.2 0  1.14 0.2 0  1.17 0.2 0  1.2 0.2 0  1.23 0.2 0  1.26 0.2 0  1.29 0.2 0  1.32 0.2 0  1.35 0.2 0  1.38 0.2 0  1.41 0.2 0  1.44 0.2 0  1.47 0.2 0  1.5 0.2 0  0 0.22 0  0.03 0.22 0  0.06 0.22 0  0.09 0.22 0  0.12 0.22 0  0.15 0.22 0  0.18 0.22 0  0.21 0.22 0  0.24 0.22 0  0.27 0.22 0  0.3 0.22 0  0.33 0.22 0  0.36 0.22 0  0.39 0.22 0  0.42 0.22 0  0.45 0.22 0  0.48 0.22 0  0.51 0.22 0  0.54 0.22 0  0.57 0.22 0  0.6 0.22 0  0.63 0.22 0  0.66 0.22 0  0.6899999999999999 0.22 0  0.72 0.22 0  0.75 0.22 0  0.78 0.22 0  0.8100000000000001 0.22 0  0.84 0.22 0  0.87 0.22 0  0.9 0.22 0  0.93 0.22 0  0.96 0.22 0  0.99 0.22 0  1.02 0.22 0  1.05 0.22 0  1.08 0.22 0  1.11 0.22 0  1.14 0.22 0  1.17 0.22 0  1.2 0.22 0  1.23 0.22 0  1.26 0.22 0  1.29 0.22 0  1.32 0.22 0  1.35 0.22 0  1.38 0.22 0  1.41 0.22 0  1.44 0.22 0  1.47 0.22 0  1.5 0.22 0  0 0.24 0  0.03 0.24 0  0.06 0.24 0  0.09 0.24 0  0.12 0.24 0  0.15 0.24 0  0.18 0.24 0  0.21 0.24 0  0.24 0.24 0  0.27 0.24 0  0.3 0.24 0  0.33 0.24 0  0.36 0.24 0  0.39 0.24 0  0.42 0.24 0  0.45 0.24 0  0.48 0.24 0  0.51 0.24 0  0.54 0.24 0  0.57 0.24 0  0.6 0.24 0  0.63 0.24 0  0.66 0.24 0  0.6899999999999999 0.24 0  0.72 0.24 0  0.75 0.24 0  0.78 0.24 0  0.8100000000000001 0.24 0  0.84 0.24 0  0.87 0.24 0  0.9 0.24 0  0.93 0.24 0  0.96 0.24 0  0.99 0.24 0  1.02 0.24 0  1.05 0.24 0  1.08 0.24 0  1.11 0.24 0  1.14 0.24 0  1.17 0.24 0  1.2 0.24 0  1.23 0.24 0  1.26 0.24 0  1.29 0.24 0  1.32 0.24 0  1.35 0.24 0  1.38 0.24 0  1.41 0.24 0  1.44 0.24 0  1.47 0.24 0  1.5 0.24 0  0 0.26 0  0.03 0.26 0  0.06 0.26 0  0.09 0.26 0  0.12 0.26 0  0.15 0.26 0  0.18 0.26 0  0.21 0.26 0  0.24 0.26 0  0.27 0.26 0  0.3 0.26 0  0.33 0.26 0  0.36 0.26 0  0.39 0.26 0  0.42 0.26 0  0.45 0.26 0  0.48 0.26 0  0.51 0.26 0  0.54 0.26 0  0.57 0.26 0  0.6 0.26 0  0.63 0.26 0  0.66 0.26 0  0.6899999999999999 0.26 0  0.72 0.26 0  0.75 0.26 0  0.78 0.26 0  0.8100000000000001 0.26 0  0.84 0.26 0  0.87 0.26 0  0.9 0.26 0  0.93 0.26 0  0.96 0.26 0  0.99 0.26 0  1.02 0.26 0  1.05 0.26 0  1.08 0.26 0  1.11 0.26 0  1.14 0.26 0  1.17 0.26 0  1.2 0.26 0  1.23 0.26 0  1.26 0.26 0  1.29 0.26 0  1.32 0.26 0  1.35 0.26 0  1.38 0.26 0  1.41 0.26 0  1.44 0.26 0  1.47 0.26 0  1.5 0.26 0  0 0.28 0  0.03 0.28 0  0.06 0.28 0  0.09 0.28 0  0.12 0.28 0  0.15 0.28 0  0.18 0.28 0  0.21 0.28 0  0.24 0.28 0  0.27 0.28 0  0.3 0.28 0  0.33 0.28 0  0.36 0.28 0  0.39 0.28 0  0.42 0.28 0  0.45 0.28 0  0.48 0.28 0  0.51 0.28 0  0.54 0.28 0  0.57 0.28 0  0.6 0.28 0  0.63 0.28 0  0.66 0.28 0  0.6899999999999999 0.28 0  0.72 0.28 0  0.75 0.28 0  0.78 0.28 0  0.8100000000000001 0.28 0  0.84 0.28 0  0.87 0.28 0  0.9 0.28 0  0.93 0.28 0  0.96 0.28 0  0.99 0.28 0  1.02 0.28
[...]
<PointData  Scalars="ControlVisualisation"> 
<DataArray  type="Float64"  Name="ControlVisualisation"  format="ascii">2.0617288732573926e-02  9.3911472680289626e-03  9.4248860693808174e-03  9.4968275594705595e-03  9.6101028678407113e-03  9.7513792045604460e-03  9.8992542223304558e-03  1.0034679282646834e-02  1.0145692704160270e-02  1.0227975504818639e-02  1.0283503808373111e-02  1.0317842893661035e-02  1.0336834748651658e-02  1.0344349507196850e-02  1.0342277582724897e-02  1.0332043872793233e-02  1.0315778885179955e-02  1.0296170735477637e-02  1.0275622559191604e-02  1.0255793817976110e-02  1.0237776855878379e-02  1.0222404794231390e-02  1.0210315943004433e-02  1.0201878291153273e-02  1.0197205229743343e-02  1.0196299410026116e-02  1.0199199719146700e-02  1.0206013985731097e-02  1.0216822914511620e-02  1.0231521490076674e-02  1.0249653464271959e-02  1.0270242483639832e-02  1.0291665325273119e-02  1.0311736704321894e-02  1.0328149834509255e-02  1.0339137383245333e-02  1.0343848904107715e-02  1.0341755309398067e-02  1.0330927713945968e-02  1.0306453007897461e-02  1.0260919586071105e-02  1.0187353392412359e-02  1.0082863376473652e-02  9.9511596134334232e-03  9.8034068114146999e-03  9.6573047047368438e-03  9.5333417727927611e-03  9.4470843654535369e-03  9.4010413484227999e-03  9.3834217759415188e-03  6.5749901487687584e-02  9.3864631552424763e-03  2.5039316459776074e-03  2.5291144453729372e-03  2.5912414532409042e-03  2.7040900114830516e-03  2.8657463316411197e-03  3.0574977042696627e-03  3.2509237835186729e-03  3.4180404850558538e-03  3.5412952382682661e-03  3.6190985525133036e-03  3.6626875679078297e-03  3.6861223910069144e-03  3.6972456330763848e-03  3.6962441943292554e-03  3.6810747099853998e-03  3.6530237601251625e-03  3.6171480866081344e-03  3.5788932947048678e-03  3.5416578512926962e-03  3.5072433521483350e-03  3.4772100169275892e-03  3.4531072090935901e-03  3.4358548061375754e-03  3.4255172050856979e-03  3.4218375049334809e-03  3.4249299972662246e-03  3.4354585870587095e-03  3.4541894451989401e-03  3.4813495157576153e-03  3.5162038328176333e-03  3.5567501212850489e-03  3.5993346784372604e-03  3.6387144550798813e-03  3.6694216889597564e-03  3.6882906287371044e-03  3.6964894614542193e-03  3.6984552461183547e-03  3.6961402025333656e-03  3.6817441319961473e-03  3.6368252799048179e-03  3.5419078542823536e-03  3.3902502108865279e-03  3.1951351623091331e-03  2.9864640108479001e-03  2.7991451245162925e-03  2.6577798944252308e-03  2.5680501950465576e-03  2.5211365868726306e-03  2.5018060835998220e-03  9.3826771599431931e-03  9.3970418905418122e-03  2.5115982502803003e-03  2.5515559374004876e-03  2.6496691394398229e-03  2.8297355513651687e-03  3.0917559025981783e-03  3.4098034236021424e-03  3.7391770203110547e-03  4.0306134675847545e-03  4.2489526433511157e-03  4.3872444556871046e-03  4.4642751366760491e-03  4.5059009714187859e-03  4.5261469742417515e-03  4.5236371447225192e-03  4.4930931108665764e-03  4.4372723301802919e-03  4.3672369862335636e-03  4.2942574184711459e-03  4.2245467697767311e-03  4.1607834116362610e-03  4.1054101754940016e-03  4.0611570412182815e-03  4.0296328229719389e-03  4.0107554892764991e-03  4.0037647196020550e-03  4.0086060016630391e-03  4.0263866600298848e-03  4.0586318830143076e-03  4.1061195762906524e-03  4.1681512937998821e-03  4.2420170640959445e-03  4.3219697538056170e-03  4.3986224534860972e-03  4.4609015924272737e-03  4.5009634331220315e-03  4.5192866749080782e-03  4.5245725665927494e-03  4.5235646693338877e-03  4.5052690722726038e-03  4.4365328551835871e-03  4.2802599737603343e-03  4.0232853980985001e-03  3.6893684908689377e-03  3.3313869183174902e-03  3.0114003170853658e-03  2.7726503771914116e-03  2.6227135380641666e-03  2.5439593315162261e-03  2.5102672266885430e-03  9.3904669569480417e-03  9.4070057605438011e-03  2.5214386708619727e-03  2.5813782254782945e-03  2.7164294143609720e-03  2.9458640962433877e-03  3.2570409359694852e-03  3.6147822621670177e-03  3.9704145328981581e-03  4.2718479187226731e-03  4.4825927238722370e-03  4.6006218861037486e-03  4.6559516362919932e-03  4.6841177904752077e-03  4.6996204739477750e-03  4.6932556802615454e-03  4.6524263231960995e-03  4.5800810043327284e-03  4.4927441508085114e-03  4.4057198960181648e-03  4.3252623992350962e-03  4.2525886272993460e-03  4.1897341458776056e-03  4.1399705820490580e-03  4.1051713222034145e-03  4.0848065541907591e-03  4.0774066749707273e-03  4.0825359996418918e-03  4.1014975319434016e-03  4.1364039528430374e-03  4.1886690024277619e-03  4.2582355738076116e-03  4.3431193572785430e-03  4.4377404699741350e-03  4.5310992255151623e-03  4.6084857610440497e-03  4.6582057926911162e-03  4.6802518946445285e-03  4.6893485535416286e-03  4.7022490346067813e-03  4.7121326739315329e-03  4.6769510240883619e-03  4.5436202802427023e-03  4.2884981036067742e-03  3.9325745466738497e-03  3.5298573823892530e-03  3.1507093855747195e-03  2.8567539716350364e-03  2.6683159678460543e-03  2.5659733488964335e-03  2.5198835802600714e-03  9.4019655770777831e-03  9.4052557295065883e-03  2.5350395434034362e-03  2.6548214148907952e-03  2.8980157737535060e-03  3.2393709202453262e-03  3.6147125973156162e-03  3.9787031478390432e-03  4.3017896446949887e-03  4.5500490115779543e-03  4.6958195626997136e-03  4.7460634506881344e-03  4.7458464888681627e-03  4.7429105269252564e-03  4.7494277938545867e-03  4.7405121434734680e-03  4.6896256738357227e-03  4.5994316074809277e-03  4.4949400308309448e-03  4.3968841535625205e-03  4.3101504401632726e-03  4.2326749621644580e-03  4.1655605732861013e-03  4.1129025965157238e-03  4.0770075527526081e-03  4.0567453109211088e-03  4.0496581413359337e-03  4.0546926995561582e-03  4.0732582459734185e-03  4.1081562013839251e-03  4.1616620862900654e-03  4.2347135069901003e-03  4.3267372772494359e-03  4.4332483119512572e-03  4.5420345275161700e-03  4.6338576077050476e-03  4.6912509479668622e-03  4.7128991113536411e-03  4.7233683013540029e-03  4.7584116382451136e-03  4.8229018111253900e-03  4.8650482312543042e-03  4.8092761725505306e-03  4.6186321028336627e-03  4.3083705630544041e-03  3.9121587776491835e-03  3.4737182765852970e-03  3.0769919815885963e-03  2.7887000474676182e-03  2.6140043304257021e-03  2.5302619200972508e-03  9.4075274815049285e-03  9.3959132231514995e-03  2.5760927227817584e-03  2.9643849281937411e-03  3.7054166415543925e-03  4.4967889143019621e-03  4.9384822965256835e-03  5.0444321715430139e-03  5.0561931965029776e-03  5.0545723517684514e-03  5.0091798464468353e-03  4.9142145471149576e-03  4.8176418198085311e-03  4.7694999004557169e-03  4.7689018645486018e-03  4.7627515425984861e-03  4.7017357403491625e-03  4.5890850340789650e-03  4.4639636631590464e-03  4.3552923154493231e-03  4.2646536452823208e-03  4.1840192951564451e-03  4.1131168014850068e-03  4.0577271598196581e-03  4.0211319773965082e-03  4.0015402953485942e-03  3.9951949481162527e-03  4.0001021774545772e-03  4.0175821970120304e-03  4.0511839395262934e-03  4.1043188978154219e-03  4.1793046463920562e-03  4.2776327200369953e-03  4.3968705127986653e-03  4.5239761966987431e-03  4.6335297776653531e-03  4.6983071158635745e-03  4.7126896853388438e-03  4.7161210215113311e-03  4.7783098360616970e-03  4.9287118204911287e-03  5.1079710211555905e-03  5.2181093923933455e-03  5.2304632233943216e-03  5.1798799280605677e-03  5.0305272786638003e-03  4.6875299973703939e-03  4.1665586618002681e-03  3.4235424274332051e-03  2.8005276169422756e-03  2.5460847926325123e-03  9.3995931425406021e-03  9.4932425409393131e-03  2.9427609410930325e-03  5.0850685328106687e-03  9.6169264616702277e-03  1.3302566679189470e-02  1.2954401886406421e-02  1.0391157372482317e-02  7.9298223373754882e-03  6.4319398626898547e-03  5.6514689289982670e-03  5.1800840889052249e-03  4.8856324148820914e-03  4.7647525764284264e-03  4.7663106978813145e-03  4.7759321455512239e-03  4.7056316911963901e-03  4.5641193489401460e-03  4.4149329989868827e-03  4.2980623578396833e-03  4.2079043634944829e-03  4.1266430844632482e-03  4.0523669821174342e-03  3.9940756545640034e-03  3.9569318858615095e-03  3.9385075607822582e-03  3.9334188922781795e-03  3.9383524495881436e-03  3.9541921524791461e-03  3.9851363477029500e-03  4.0360328941718322e-03  4.1110453517662834e-03  4.2144474109056633e-03  4.3472478695311088e-03  4.4966306155258436e-03  4.6295299958417808e-03  4.7032659252855130e-03  4.7009775958545379e-03  4.6812089620209343e-03  4.7708642998163450e-03  5.0524691115129347e-03  5.4918833098521261e-03  6.0334401172756208e-03  6.8054419169958948e-03  8.0341222103605045e-03  9.6005649808410844e-03  1.1216260959907524e-02  1.2582999216158172e-02  1.0692180506551862e-02  5.6835528897158476e-03  2.7873609199722295e-03  9.3938104086487527e-03  1.0612751118040182e-02  7.2219487938468239e-03  4.0706329368122213e-02  8.1461735819019332e-02  8.1692784179330097e-02  6.2235046868612864e-02  4.0061095989544132e-02  2.3353897853883337e-02  1.3352364236108284e-02  8.1475350559634535e-03  5.8946341242820804e-03  5.0213695761832378e-03  4.7358139632672283e-03  4.7318863173527910e-03  4.7693411129106147e-03  4.6981765833918818e-03  4.5257990111390624e-03  4.3396162080490894e-03  4.2122704912900509e-03  4.1316661794030506e-03  4.0557850702116482e-03  3.9801659780004835e-03  3.9199014406325373e-03  3.8833988225357233e-03  3.8674824613792527e-03  3.8647394017133421e-03  3.8701464841539371e-03  3.8836916237863194e-03  3.9099622634135196e-03  3.9557056083389490e-03  4.0279890565511969e-03  4.1342707089531104e-03  4.2794975061629763e-03  4.4546922606744886e-03  4.6211028821995272e-03  4.7106811548486664e-03  4.6793551733308597e-03  4.6095066046633881e-03  4.7352232951370747e-03  5.3030282136784269e-03  6.5771201994925740e-03  8.9488312042379295e-03  1.3381972969463203e-02  2.2162203603463791e-02  3.8373521126026794e-02  6.3634402736981219e-02  8.6394807901329321e-02  7.9341937658567258e-02  6.0259229425710492e-02  8.3350376697116750e-03  9.5356492155712416e-03  2.7398691882642125e-02  9.9137486506186034e-02  2.2764171058124039e-01  2.4680847181496390e-01  2.2194948618145185e-01  1.7592017110249197e-01  1.2276596305161669e-01  7.5297339883567307e-02  4.1039777552708732e-02  2.0716740555965570e-02  9.9770230836960239e-03  5.8255588778813976e-03  4.7651010008831381e-03  4.6909613156748790e-03  4.7389481425797360e-03  4.6725029663790829e-03  4.4324100618806268e-03  4.2233624490241040e-03  4.1115835402545757e-03  4.0308576350534843e-03  3.9633659143218543e-03  3.8880718863715177e-03  3.8256215819376140e-03  3.7909708457816299e-03  3.7800089795358809e-03  3.7821451521871108e-03  3.7900060976826140e-03  3.8014997523431009e-03  3.8203359878099252e-03  3.8561432358657222e-03  3.9220423932517859e-03  4.0295189871285553e-03  4.1862304491456018e-03  4.3880414303644200e-03  4.5969491040141058e-03  4.7167094850333116e-03  4.6340964228250119e-03  4.4639288712178295e-03  4.7842270819943959e-03  6.6158320092005660e-03  1.1488813988022029e-02  2.0969196132889792e-02  3.8642672087161725e-02  7.1513099085377424e-02  1.1942417457764608e-01  1.7327747180485956e-01  2.1577176270245449e-01  2.3542043808365437e-01  2.0801043777137457e-01  8.7016529819705854e-02  1.8151621682455623e-02  4.4204226535103647e-01  4.5551193937449130e-01  5.0549908563766521e-01  4.5172699776182923e-01  4.0217297739240448e-01  3.2524208798510024e-01  2.4063075789022387e-01  1.6306767698040392e-01  1.0006768528525965e-01  5.6073202093630078e-02  2.7992628612480350e-02  1.2016097710698906e-02  6.0749563941467077e-03  4.6813869836856772e-03  4.4728882625954085e-03  4.3916702798943441e-03  4.3219997155287092e-03  4.1385340242555968e-03  3.9702117750960615e-03  3.9282178251642645e-03  3.8666028392006155e-03  3.7879720204765065e-03  3.7220256382625959e-03  3.6870127809912438e-03  3.6805191570743329e-03  3.6892382527977940e-03  3.7024563315846727e-03  3.7149407081850591e-03  3.7267898148148522e-03  3.7469405995544693e-03  3.7954468147793109e-03  3.8974512000423435e-03  4.0648106938885112e-03  4.2879101760884761e-03  4.5150978782718711e-03  4.6003438119384919e-03  4.4612236324501689e-03  4.5566706624389462e-03  6.3576428351060851e-03  1.2828380367434070e-02  2.7827938063402058e-02  5.2394641059840853e-02  9.5714786197569790e-02  1.6043526840701294e-01  2.4053708024912038e-01  3.2461837335273719e-01  3.8930033743386178e-01  4.3048438752955470e-01  4.4538931121659669e-01  4.8122185218508762e-01  3.6363337105288662e-01  9.3406712868677433e-01  9.2478880787158746e-01  7.9452245747683303e-01  6.5433918673868119e-01  5.6375173752859420e-01  4.7737742688350038e-01  3.7996156026066097e-01  2.8372821305123730e-01  1.9703239251078880e-01  1.2448691582097382e-01  7.2435741999496692e-02  3.7678695061324582e-02  1.6506688511238765e-02  7.7396790471309859e-03  5.2483325759351725e-03  4.2840597519014888e-03  3.9837361214267730e-03  3.9181431669222458e-03  3.7910226445977448e-03  3.7414532925230011e-03  3.7464092624180621e-03  3.6795725791639762e-03  3.6111212721194295e-03  3.5769560591958488e-03  3.5740712015410597e-03  3.5891227249342378e-03  3.6101628169428954e-03  3.6295621770758325e-03  3.6408025263831717e-03  3.6445649256361089e-03  3.6576472246461350e-03  3.7131824394946236e-03  3.8299299358795953e-03  4.0026728668910751e-03  4.2291426999149367e-03  4.5583263399136334e-03  5.2428616891188710e-03  7.4832964873567109e-03  1.5319348094929963e-02  3.6093945102612678e-02  7.0717203847868143e-02  1.1924367893029092e-01  1.9081062856544229e-01  2.8424426393583102e-01  3.8044648946685650e-01  4.6472677763070686e-01  5.5210791818416283e-01  6.6522912444361715e-01  8.0625036281405227e-01  9.3808528275760583e-01  9.0051158704509982e-01  9.9156465112129122e-01  9.9609231129621101e-01  9.6991608789415418e-01  8.6298753100719805e-01  7.2622772035478966e-01  6.1282824841355621e-01  5.1246121579228665e-01  4.1013546372565018e-01  3.1141853884217091e-01  2.2607884851919741e-01  1.5375617292536112e-01  9.3314622187900237e-02  5.0173690213910063e-02  2.4276954148895323e-02  1.2077031023094820e-02  6.7530788871913890e-03  4.1242739551820770e-03  3.4461677567433485e-03  3.4715541692231580e-03  3.4859121427795563e-03  3.5884945156580590e-03  3.5961957556349053e-03  3.5308281340043352e-03  3.4915332442735161e-03  3.4891769066062589e-03  3.5090997647744746e-03  3.5388153082850649e-03  3.5712168202701108e-03  3.5934798309263279e-03  3.5868325145539358e-03  3.5456965472144171e-03  3.4906190720725497e-03  3.4782025058402270e-03  3.7338206847615935e-03  4.7881457004226788e-03  7.1542714064291163e-03  1.1537374923858541e-02  2.1931464960018021e-02  4.9970510010140724e-02  9.6740124657554383e-02  1.4929714531791438e-01  2.1688579521479476e-01  3.1075235825849257e-01  4.1037426672040889e-01  5.0620701413102231e-01  6.0970381211655356e-01  7.3390360326240278e-01  8.7897166743534727e-01  9.7764957320097889e-01  9.9681562970821891e-01  9.8658276051544125e-01  9.9640325352055170e-01  9.9903868795422679e-01  9.9485408185136659e-01  9.6429804222698112e-01  8.6396351215214218e-01  7.4073786914526507e-01  6.2989986682970511e-01  5.2848624453414750e-01  4.2798698984496025e-01  3.3175600695190138e-01  2.5087801782420410e-01  1.8271470066617734e-01  1.1691438750368460e-01  6.4181097944500595e-02  3.5560355331092253e-02  1.9957293261100517e-02  9.9654833175861351e-03  5.5592034522184905e-03  4.1314706516641687e-03  3.8341021640460951e-03  3.6817782524297162e-03  3.6945334964540964e-03  3.6782158031974377e-03  3.6533090946495143e-03  3.6600909535342563e-03  3.6850144497774968e-03  3.7167242180157732e-03  3.7566830032600904e-03  3.7947820198615534e-03  3.7948122116075768e-03  3.7519792081171961e-03  3.8345919872537458e-03  4.4988051165475648e-03  6.4605144208512537e-03  1.0927674628160813e-02  1.9198405249194972e-02  3.4030462419414320e-02  6.6570310719154244e-02  1.1919522818649862e-01  1.7531772259878567e-01  2.4302590327059084e-01  3.3307918707260681e-01  4.2852622974513066e-01  5.2457989784548775e-01  6.2829094234231220e-01  7.4411253438367486e-01  8.7236364594617533e-01  9.6859547430275417e-01  9.9540747667866736e-01  9.9908774952210155e-01  9.9582314165401231e-01  9.9595442608783058e-01  9.9921506346305433e-01  9.9702252638258981e-01  9.8407844053159566e-01  9.3328327651738041e-01  8.3768314551251533e-01  7.3205323087324992e-01  6.3124799550234634e-01  5.3522444660161250e-01  4.4016772444582042e-01  3.4855360105321298e-01  2.7176586727034063e-01  2.0859136554336666e-01  1.4452429721494525e-01  8.7122642877669132e-02  5.4894187625830211e-02  3.6616568907490987e-02  2.2589476648560314e-02  1.4807663477099407e-02  1.1469534571599639e-02  9.3090188713625503e-03  7.5680161190029606e-03  6.5975638760500943e-03  6.2146367493648019e-03  6.1275889068024558e-03  6.1569144397596795e-03  6.2846630381276428e-03  6.5691058176865942e-03  7.0333822045512348e-03  7.6707677662433173e-03  8.6566318107040227e-03  1.0614632952575122e-02  1.4624074660942676e-02  2.2143804507462207e-02  3.4862814442074792e-02  5.5101291205721444e-02  8.9514629029428014e-02  1.3874072747482538e-01  1.9508677097338686e-01  2.6723695002644848e-01  3.5355126268812442e-01  4.4182810986177284e-01  5.3250180906629951e-01  6.3011708985637493e-01  7.3409740365689691e-01  8.4192527225887781e-01  9.3603301938608063e-01  9.8428272024714736e-01  9.9694061733186168e-01  9.9919511384681314e-01  9.9645158968367442e-01  9.8742728653952561e-01  9.9814954925822785e-01  9.9486660551870287e-01  9.8271727866199243e-01  9.4912092415870353e-01  8.8747688674366698e-01  8.0629945947693338e-01  7.1753342637849649e-01  6.2799738529478422e-01  5.4050588675552580e-01  4.5344075298533609e-01  3.6905809492169794e-01  2.9686432328155327e-01  2.3879987787911033e-01  1.8431799322603570e-01  1.3373174193359508e-01  9.9528165289129736e-02  7.7978412849765283e-02  6.0605972966875810e-02  4.8228310484686787e-02  4.1005660770408306e-02  3.5497394673844058e-02  3.1354365291153673e-02  2.9119235051389331e-02  2.8385693037841629e-02  2.8386199003443774e-02  2.8863616822014659e-02  3.0040223807361266e-02  3.2053182162113690e-02  3.5058684628906801e-02  3.9826231309351465e-02  4.7633396073676740e-02  5.9439925355454400e-02  7.6039054133268419e-02  9.9426060357500790e-02  1.3157712178895706e-01  1.7171288524623277e-01  2.2489647239130187e-01  2.9641650103805445e-01  3.7589729160801827e-01  4.5583567236276856e-01  5.3879661904911247e-01  6.2690572644201625e-01  7.1868664161700413e-01  8.0936876796137103e-01  8.9000418843916418e-01  9.4893772491069106e-01  9.8131045574860631e-01  9.9411514943189239e-01  9.9791610596273816e-01  9.9211188372456705e-01  8.9768882350674961e-01  9.7622837052669453e-01  9.6851149300640949e-01  9.5559558566846892e-01  9.3291995649055071e-01  8.9685729264394309e-01  8.4541887652617187e-01  7.7949782816689872e-01  7.0453972990435931e-01  6.2713430340609699e-01  5.5091620536945840e-01  4.7566854931799990e-01  4.0239268882945262e-01  3.3779018342298939e-01  2.8654295828772947e-01  2.4391685101220140e-01  2.0612044713498642e-01  1.7597261057632824e-01  1.5320158895737246e-01  1.3479508328810291e-01  1.2131772031227855e-01  1.1457401938789397e-01  1.1200659735684497e-01  1.0978171603912558e-01  1.0722066940958586e-01  1.0553207874052729e-01  1.0546453532766668e-01  1.0689171859408973e-01  1.0999041976292834e-01  1.1582055837647835e-01  1.2539610351375904e-01  1.3858805549982389e-01  1.5493905480369685e-01  1.7483385799712278e-01  1.9923164273393429e-01  2.3198426870944672e-01  2.7978532225328473e-01  3.4142155965810361e-01  4.0801322779943988e-01  4.7672905718470604e-01  5.4929720790589054e-01  6.2629823083562974e-01  7.0573228145966227e-01  7.8223576564748087e-01  8.4841720987795022e-01  8.9809700487377397e-01  9.3078499879815246e-01  9.5217276212083235e-01  9.7075316669585665e-01  9.7709308839659881e-01  9.4128489496462742e-01  3.4701723206454926e-01  6.4811653644786571e-01  7.9316840508521802e-01  8.5383715546090766e-01  8.7640077488733337e-01  8.7483200128656169e-01  8.5361717683624561e-01  8.1447709098225607e-01  7.6073752240756376e-01  6.9864988796813821e-01  6.3476784679324771e-01  5.7273719354479424e-01  5.128782134