<?xml version="1.0"?>
<VTKFile type="UnstructuredGrid"  version="0.1"  >
<UnstructuredGrid>
<Piece  NumberOfPoints="2601" NumberOfCells="5000">
<Points>
<DataArray  type="Float64"  NumberOfComponents="3"  format="ascii">0 0 0  0.03 0 0  0.06 0 0  0.09 0 0  0.12 0 0  0.15 0 0  0.18 0 0  0.21 0 0  0.24 0 0  0.27 0 0  0.3 0 0  0.33 0 0  0.36 0 0  0.39 0 0  0.42 0 0  0.45 0 0  0.48 0 0  0.51 0 0  0.54 0 0  0.57 0 0  0.6 0 0  0.63 0 0  0.66 0 0  0.6899999999999999 0 0  0.72 0 0  0.75 0 0  0.78 0 0  0.8100000000000001 0 0  0.84 0 0  0.87 0 0  0.9 0 0  0.93 0 0  0.96 0 0  0.99 0 0  1.02 0 0  1.05 0 0  1.08 0 0  1.11 0 0  1.14 0 0  1.17 0 0  1.2 0 0  1.23 0 0  1.26 0 0  1.29 0 0  1.32 0 0  1.35 0 0  1.38 0 0  1.41 0 0  1.44 0 0  1.47 0 0  1.5 0 0  0 0.02 0  0.03 0.02 0  0.06 0.02 0  0.09 0.02 0  0.12 0.02 0  0.15 0.02 0  0.18 0.02 0  0.21 0.02 0  0.24 0.02 0  0.27 0.02 0  0.3 0.02 0  0.33 0.02 0  0.36 0.02 0  0.39 0.02 0  0.42 0.02 0  0.45 0.02 0  0.48 0.02 0  0.51 0.02 0  0.54 0.02 0  0.57 0.02 0  0.6 0.02 0  0.63 0.02 0  0.66 0.02 0  0.6899999999999999 0.02 0  0.72 0.02 0  0.75 0.02 0  0.78 0.02 0  0.8100000000000001 0.02 0  0.84 0.02 0  0.87 0.02 0  0.9 0.02 0  0.93 0.02 0  0.96 0.02 0  0.99 0.02 0  1.02 0.02 0  1.05 0.02 0  1.08 0.02 0  1.11 0.02 0  1.14 0.02 0  1.17 0.02 0  1.2 0.02 0  1.23 0.02 0  1.26 0.02 0  1.29 0.02 0  1.32 0.02 0  1.35 0.02 0  1.38 0.02 0  1.41 0.02 0  1.44 0.02 0  1.47 0.02 0  1.5 0.02 0  0 0.04 0  0.03 0.04 0  0.06 0.04 0  0.09 0.04 0  0.12 0.04 0  0.15 0.04 0  0.18 0.04 0  0.21 0.04 0  0.24 0.04 0  0.27 0.04 0  0.3 0.04 0  0.33 0.04 0  0.36 0.04 0  0.39 0.04 0  0.42 0.04 0  0.45 0.04 0  0.48 0.04 0  0.51 0.04 0  0.54 0.04 0  0.57 0.04 0  0.6 0.04 0  0.63 0.04 0  0.66 0.04 0  0.6899999999999999 0.04 0  0.72 0.04 0  0.75 0.04 0  0.78 0.04 0  0.8100000000000001 0.04 0  0.84 0.04 0  0.87 0.04 0  0.9 0.04 0  0.93 0.04 0  0.96 0.04 0  0.99 0.04 0  1.02 0.04 0  1.05 0.04 0  1.08 0.04 0  1.11 0.04 0  1.14 0.04 0  1.17 0.04 0  1.2 0.04 0  1.23 0.04 0  1.26 0.04 0  1.29 0.04 0  1.32 0.04 0  1.35 0.04 0  1.38 0.04 0  1.41 0.04 0  1.44 0.04 0  1.47 0.04 0  1.5 0.04 0  0 0.06 0  0.03 0.06 0  0.06 0.06 0  0.09 0.06 0  0.12 0.06 0  0.15 0.06 0  0.18 0.06 0  0.21 0.06 0  0.24 0.06 0  0.27 0.06 0  0.3 0.06 0  0.33 0.06 0  0.36 0.06 0  0.39 0.06 0  0.42 0.06 0  0.45 0.06 0  0.48 0.06 0  0.51 0.06 0  0.54 0.06 0  0.57 0.06 0  0.6 0.06 0  0.63 0.06 0  0.66 0.06 0  0.6899999999999999 0.06 0  0.72 0.06 0  0.75 0.06 0  0.78 0.06 0  0.8100000000000001 0.06 0  0.84 0.06 0  0.87 0.06 0  0.9 0.06 0  0.93 0.06 0  0.96 0.06 0  0.99 0.06 0  1.02 0.06 0  1.05 0.06 0  1.08 0.06 0  1.11 0.06 0  1.14 0.06 0  1.17 0.06 0  1.2 0.06 0  1.23 0.06 0  1.26 0.06 0  1.29 0.06 0  1.32 0.06 0  1.35 0.06 0  1.38 0.06 0  1.41 0.06 0  1.44 0.06 0  1.47 0.06 0  1.5 0.06 0  0 0.08 0  0.03 0.08 0  0.06 0.08 0  0.09 0.08 0  0.12 0.08 0  0.15 0.08 0  0.18 0.08 0  0.21 0.08 0  0.24 0.08 0  0.27 0.08 0  0.3 0.08 0  0.33 0.08 0  0.36 0.08 0  0.39 0.08 0  0.42 0.08 0  0.45 0.08 0  0.48 0.08 0  0.51 0.08 0  0.54 0.08 0  0.57 0.08 0  0.6 0.08 0  0.63 0.08 0  0.66 0.08 0  0.6899999999999999 0.08 0  0.72 0.08 0  0.75 0.08 0  0.78 0.08 0  0.8100000000000001 0.08 0  0.84 0.08 0  0.87 0.08 0  0.9 0.08 0  0.93 0.08 0  0.96 0.08 0  0.99 0.08 0  1.02 0.08 0  1.05 0.08 0  1.08 0.08 0  1.11 0.08 0  1.14 0.08 0  1.17 0.08 0  1.2 0.08 0  1.23 0.08 0  1.26 0.08 0  1.29 0.08 0  1.32 0.08 0  1.35 0.08 0  1.38 0.08 0  1.41 0.08 0  1.44 0.08 0  1.47 0.08 0  1.5 0.08 0  0 0.1 0  0.03 0.1 0  0.06 0.1 0  0.09 0.1 0  0.12 0.1 0  0.15 0.1 0  0.18 0.1 0  0.21 0.1 0  0.24 0.1 0  0.27 0.1 0  0.3 0.1 0  0.33 0.1 0  0.36 0.1 0  0.39 0.1 0  0.42 0.1 0  0.45 0.1 0  0.48 0.1 0  0.51 0.1 0  0.54 0.1 0  0.57 0.1 0  0.6 0.1 0  0.63 0.1 0  0.66 0.1 0  0.6899999999999999 0.1 0  0.72 0.1 0  0.75 0.1 0  0.78 0.1 0  0.8100000000000001 0.1 0  0.84 0.1 0  0.87 0.1 0  0.9 0.1 0  0.93 0.1 0  0.96 0.1 0  0.99 0.1 0  1.02 0.1 0  1.05 0.1 0  1.08 0.1 0  1.11 0.1 0  1.14 0.1 0  1.17 0.1 0  1.2 0.1 0  1.23 0.1 0  1.26 0.1 0  1.29 0.1 0  1.32 0.1 0  1.35 0.1 0  1.38 0.1 0  1.41 0.1 0  1.44 0.1 0  1.47 0.1 0  1.5 0.1 0  0 0.12 0  0.03 0.12 0  0.06 0.12 0  0.09 0.12 0  0.12 0.12 0  0.15 0.12 0  0.18 0.12 0  0.21 0.12 0  0.24 0.12 0  0.27 0.12 0  0.3 0.12 0  0.33 0.12 0  0.36 0.12 0  0.39 0.12 0  0.42 0.12 0  0.45 0.12 0  0.48 0.12 0  0.51 0.12 0  0.54 0.12 0  0.57 0.12 0  0.6 0.12 0  0.63 0.12 0  0.66 0.12 0  0.6899999999999999 0.12 0  0.72 0.12 0  0.75 0.12 0  0.78 0.12 0  0.8100000000000001 0.12 0  0.84 0.12 0  0.87 0.12 0  0.9 0.12 0  0.93 0.12 0  0.96 0.12 0  0.99 0.12 0  1.02 0.12 0  1.05 0.12 0  1.08 0.12 0  1.11 0.12 0  1.14 0.12 0  1.17 0.12 0  1.2 0.12 0  1.23 0.12 0  1.26 0.12 0  1.29 0.12 0  1.32 0.12 0  1.35 0.12 0  1.38 0.12 0  1.41 0.12 0  1.44 0.12 0  1.47 0.12 0  1.5 0.12 0  0 0.14 0  0.03 0.14 0  0.06 0.14 0  0.09 0.14 0  0.12 0.14 0  0.15 0.14 0  0.18 0.14 0  0.21 0.14 0  0.24 0.14 0  0.27 0.14 0  0.3 0.14 0  0.33 0.14 0  0.36 0.14 0  0.39 0.14 0  0.42 0.14 0  0.45 0.14 0  0.48 0.14 0  0.51 0.14 0  0.54 0.14 0  0.57 0.14 0  0.6 0.14 0  0.63 0.14 0  0.66 0.14 0  0.6899999999999999 0.14 0  0.72 0.14 0  0.75 0.14 0  0.78 0.14 0  0.8100000000000001 0.14 0  0.84 0.14 0  0.87 0.14 0  0.9 0.14 0  0.93 0.14 0  0.96 0.14 0  0.99 0.14 0  1.02 0.14 0  1.05 0.14 0  1.08 0.14 0  1.11 0.14 0  1.14 0.14 0  1.17 0.14 0  1.2 0.14 0  1.23 0.14 0  1.26 0.14 0  1.29 0.14 0  1.32 0.14 0  1.35 0.14 0  1.38 0.14 0  1.41 0.14 0  1.44 0.14 0  1.47 0.14 0  1.5 0.14 0  0 0.16 0  0.03 0.16 0  0.06 0.16 0  0.09 0.16 0  0.12 0.16 0  0.15 0.16 0  0.18 0.16 0  0.21 0.16 0  0.24 0.16 0  0.27 0.16 0  0.3 0.16 0  0.33 0.16 0  0.36 0.16 0  0.39 0.16 0  0.42 0.16 0  0.45 0.16 0  0.48 0.16 0  0.51 0.16 0  0.54 0.16 0  0.57 0.16 0  0.6 0.16 0  0.63 0.16 0  0.66 0.16 0  0.6899999999999999 0.16 0  0.72 0.16 0  0.75 0.16 0  0.78 0.16 0  0.8100000000000001 0.16 0  0.84 0.16 0  0.87 0.16 0  0.9 0.16 0  0.93 0.16 0  0.96 0.16 0  0.99 0.16 0  1.02 0.16 0  1.05 0.16 0  1.08 0.16 0  1.11 0.16 0  1.14 0.16 0  1.17 0.16 0  1.2 0.16 0  1.23 0.16 0  1.26 0.16 0  1.29 0.16 0  1.32 0.16 0  1.35 0.16 0  1.38 0.16 0  1.41 0.16 0  1.44 0.16 0  1.47 0.16 0  1.5 0.16 0  0 0.18 0  0.03 0.18 0  0.06 0.18 0  0.09 0.18 0  0.12 0.18 0  0.15 0.18 0  0.18 0.18 0  0.21 0.18 0  0.24 0.18 0  0.27 0.18 0  0.3 0.18 0  0.33 0.18 0  0.36 0.18 0  0.39 0.18 0  0.42 0.18 0  0.45 0.18 0  0.48 0.18 0  0.51 0.18 0  0.54 0.18 0  0.57 0.18 0  0.6 0.18 0  0.63 0.18 0  0.66 0.18 0  0.6899999999999999 0.18 0  0.72 0.18 0  0.75 0.18 0  0.78 0.18 0  0.8100000000000001 0.18 0  0.84 0.18 0  0.87 0.18 0  0.9 0.18 0  0.93 0.18 0  0.96 0.18 0  0.99 0.18 0  1.02 0.18 0  1.05 0.18 0  1.08 0.18 0  1.11 0.18 0  1.14 0.18 0  1.17 0.18 0  1.2 0.18 0  1.23 0.18 0  1.26 0.18 0  1.29 0.18 0  1.32 0.18 0  1.35 0.18 0  1.38 0.18 0  1.41 0.18 0  1.44 0.18 0  1.47 0.18 0  1.5 0.18 0  0 0.2 0  0.03 0.2 0  0.06 0.2 0  0.09 0.2 0  0.12 0.2 0  0.15 0.2 0  0.18 0.2 0  0.21 0.2 0  0.24 0.2 0  0.27 0.2 0  0.3 0.2 0  0.33 0.2 0  0.36 0.2 0  0.39 0.2 0  0.42 0.2 0  0.45 0.2 0  0.48 0.2 0  0.51 0.2 0  0.54 0.2 0  0.57 0.2 0  0.6 0.2 0  0.63 0.2 0  0.66 0.2 0  0.6899999999999999 0.2 0  0.72 0.2 0  0.75 0.2 0  0.78 0.2 0  0.8100000000000001 0.2 0  0.84 0.2 0  0.87 0.2 0  0.9 0.2 0  0.93 0.2 0  0.96 0.2 0  0.99 0.2 0  1.02 0.2 0  1.05 0.2 0  1.08 0.2 0  1.11 0.2 0  1.14 0.2 0  1.17 0.2 0  1.2 0.2 0  1.23 0.2 0  1.26 0.2 0  1.29 0.2 0  1.32 0.2 0  1.35 0.2 0  1.38 0.2 0  1.41 0.2 0  1.44 0.2 0  1.47 0.2 0  1.5 0.2 0  0 0.22 0  0.03 0.22 0  0.06 0.22 0  0.09 0.22 0  0.12 0.22 0  0.15 0.22 0  0.18 0.22 0  0.21 0.22 0  0.24 0.22 0  0.27 0.22 0  0.3 0.22 0  0.33 0.22 0  0.36 0.22 0  0.39 0.22 0  0.42 0.22 0  0.45 0.22 0  0.48 0.22 0  0.51 0.22 0  0.54 0.22 0  0.57 0.22 0  0.6 0.22 0  0.63 0.22 0  0.66 0.22 0  0.6899999999999999 0.22 0  0.72 0.22 0  0.75 0.22 0  0.78 0.22 0  0.8100000000000001 0.22 0  0.84 0.22 0  0.87 0.22 0  0.9 0.22 0  0.93 0.22 0  0.96 0.22 0  0.99 0.22 0  1.02 0.22 0  1.05 0.22 0  1.08 0.22 0  1.11 0.22 0  1.14 0.22 0  1.17 0.22 0  1.2 0.22 0  1.23 0.22 0  1.26 0.22 0  1.29 0.22 0  1.32 0.22 0  1.35 0.22 0  1.38 0.22 0  1.41 0.22 0  1.44 0.22 0  1.47 0.22 0  1.5 0.22 0  0 0.24 0  0.03 0.24 0  0.06 0.24 0  0.09 0.24 0  0.12 0.24 0  0.15 0.24 0  0.18 0.24 0  0.21 0.24 0  0.24 0.24 0  0.27 0.24 0  0.3 0.24 0  0.33 0.24 0  0.36 0.24 0  0.39 0.24 0  0.42 0.24 0  0.45 0.24 0  0.48 0.24 0  0.51 0.24 0  0.54 0.24 0  0.57 0.24 0  0.6 0.24 0  0.63 0.24 0  0.66 0.24 0  0.6899999999999999 0.24 0  0.72 0.24 0  0.75 0.24 0  0.78 0.24 0  0.8100000000000001 0.24 0  0.84 0.24 0  0.87 0.24 0  0.9 0.24 0  0.93 0.24 0  0.96 0.24 0  0.99 0.24 0  1.02 0.24 0  1.05 0.24 0  1.08 0.24 0  1.11 0.24 0  1.14 0.24 0  1.17 0.24 0  1.2 0.24 0  1.23 0.24 0  1.26 0.24 0  1.29 0.24 0  1.32 0.24 0  1.35 0.24 0  1.38 0.24 0  1.41 0.24 0  1.44 0.24 0  1.47 0.24 0  1.5 0.24 0  0 0.26 0  0.03 0.26 0  0.06 0.26 0  0.09 0.26 0  0.12 0.26 0  0.15 0.26 0  0.18 0.26 0  0.21 0.26 0  0.24 0.26 0  0.27 0.26 0  0.3 0.26 0  0.33 0.26 0  0.36 0.26 0  0.39 0.26 0  0.42 0.26 0  0.45 0.26 0  0.48 0.26 0  0.51 0.26 0  0.54 0.26 0  0.57 0.26 0  0.6 0.26 0  0.63 0.26 0  0.66 0.26 0  0.6899999999999999 0.26 0  0.72 0.26 0  0.75 0.26 0  0.78 0.26 0  0.8100000000000001 0.26 0  0.84 0.26 0  0.87 0.26 0  0.9 0.26 0  0.93 0.26 0  0.96 0.26 0  0.99 0.26 0  1.02 0.26 0  1.05 0.26 0  1.08 0.26 0  1.11 0.26 0  1.14 0.26 0  1.17 0.26 0  1.2 0.26 0  1.23 0.26 0  1.26 0.26 0  1.29 0.26 0  1.32 0.26 0  1.35 0.26 0  1.38 0.26 0  1.41 0.26 0  1.44 0.26 0  1.47 0.26 0  1.5 0.26 0  0 0.28 0  0.03 0.28 0  0.06 0.28 0  0.09 0.28 0  0.12 0.28 0  0.15 0.28 0  0.18 0.28 0  0.21 0.28 0  0.24 0.28 0  0.27 0.28 0  0.3 0.28 0  0.33 0.28 0  0.36 0.28 0  0.39 0.28 0  0.42 0.28 0  0.45 0.28 0  0.48 0.28 0  0.51 0.28 0  0.54 0.28 0  0.57 0.28 0  0.6 0.28 0  0.63 0.28 0  0.66 0.28 0  0.6899999999999999 0.28 0  0.72 0.28 0  0.75 0.28 0  0.78 0.28 0  0.8100000000000001 0.28 0  0.84 0.28 0  0.87 0.28 0  0.9 0.28 0  0.93 0.28 0  0.96 0.28 0  0.99 0.28 0  1.02 0.28
[...]
<PointData  Scalars="ControlVisualisation"> 
<DataArray  type="Float64"  Name="ControlVisualisation"  format="ascii">4.6053151208019151e-02  2.4057698540654270e-02  2.4110589537996104e-02  2.4218762681627350e-02  2.4382248155829022e-02  2.4578923014439778e-02  2.4780358939185350e-02  2.4966319472740962e-02  2.5127668818046511e-02  2.5262602475574433e-02  2.5372520297951954e-02  2.5459911038394917e-02  2.5527681824012140e-02  2.5578822825403774e-02  2.5616121682602737e-02  2.5641856753717003e-02  2.5657197312676298e-02  2.5662252912035891e-02  2.5657600681908057e-02  2.5645545723219199e-02  2.5629531492316109e-02  2.5612764876662888e-02  2.5597609304426411e-02  2.5585790512126082e-02  2.5578604018568121e-02  2.5576759835162791e-02  2.5580165052656440e-02  2.5588001813636581e-02  2.5599045729137838e-02  2.5611860167334771e-02  2.5624707979117159e-02  2.5635505862452328e-02  2.5642123556156950e-02  2.5642741766071515e-02  2.5635828357324399e-02  2.5619805650380374e-02  2.5592708166000476e-02  2.5551861831681386e-02  2.5493687682811364e-02  2.5414087132767091e-02  2.5309573136738418e-02  2.5178472765355547e-02  2.5021292812117402e-02  2.4840870185876031e-02  2.4644063958199958e-02  2.4445379472645450e-02  2.4269081743471751e-02  2.4141128673547407e-02  2.4071438695555232e-02  2.4044513054987258e-02  1.1083182350592830e-01  2.4050432645001365e-02  8.1073587514712744e-03  8.1834645971182746e-03  8.3482269187984230e-03  8.6131757864354817e-03  8.9513739805000339e-03  9.3181956456469765e-03  9.6781200672801469e-03  1.0014609470287263e-02  1.0322590594459523e-02  1.0597297057432398e-02  1.0831153720882367e-02  1.1018524920973688e-02  1.1160470279982376e-02  1.1264297510954801e-02  1.1337926483583996e-02  1.1382938049474108e-02  1.1395470374659008e-02  1.1376263613131588e-02  1.1335790292488960e-02  1.1288082475488298e-02  1.1243279709832259e-02  1.1206294723843577e-02  1.1179186022767851e-02  1.1163035051495875e-02  1.1158244761403825e-02  1.1164208437725932e-02  1.1179261708137860e-02  1.1201066886854153e-02  1.1227071940683963e-02  1.1254722891012160e-02  1.1281436923155795e-02  1.1304395874924433e-02  1.1320072438188779e-02  1.1323474272208976e-02  1.1307311250295993e-02  1.1261648791270115e-02  1.1174718494379732e-02  1.1035258804017475e-02  1.0836395512805982e-02  1.0579684471155272e-02  1.0275554911329799e-02  9.9380139065248733e-03  9.5789318121145932e-03  9.2095393190763201e-03  8.8489745437616320e-03  8.5305815564784438e-03  8.2935551845598181e-03  8.1566274436954446e-03  8.0976207443880198e-03  2.4043465379712393e-02  2.4070080055014976e-02  8.1372345242805341e-03  8.2749091995131373e-03  8.5742699491253849e-03  9.0627894434426436e-03  9.6901005091091456e-03  1.0370130243109583e-02  1.1034536798130391e-02  1.1654618072039519e-02  1.2224668980738285e-02  1.2736858102929717e-02  1.3174689347146100e-02  1.3524772576103402e-02  1.3789010956110192e-02  1.3984823915849987e-02  1.4131991447510477e-02  1.4230046818344853e-02  1.4257225154941898e-02  1.4205300133023045e-02  1.4099378067394596e-02  1.3976669185277204e-02  1.3862526430454818e-02  1.3767987133022980e-02  1.3697655607553955e-02  1.3654638497411768e-02  1.3640656809072480e-02  1.3654711345317126e-02  1.3692787209662886e-02  1.3748881103789464e-02  1.3816321728713894e-02  1.3888363009741955e-02  1.3958144558580042e-02  1.4018616071608720e-02  1.4062498070079289e-02  1.4081687545955263e-02  1.4065353023178982e-02  1.3997586617481263e-02  1.3856910219612668e-02  1.3619432681834839e-02  1.3267073795951923e-02  1.2799313301019025e-02  1.2238610508406293e-02  1.1618133798269240e-02  1.0961260812706285e-02  1.0281892187163610e-02  9.6075997717159894e-03  8.9963498108063811e-03  8.5277303580112204e-03  8.2493128022076891e-03  8.1260641473734491e-03  2.4056050293232205e-02  2.4095142811215390e-02  8.1841888103365134e-03  8.4161878925819097e-03  8.8874777461055623e-03  9.6033949872454342e-03  1.0442475861463666e-02  1.1261939302684026e-02  1.1990437336977699e-02  1.2631643021143724e-02  1.3208619247117439e-02  1.3721563035957039e-02  1.4151834464391409e-02  1.4489241400729505e-02  1.4743851479979315e-02  1.4941581030853541e-02  1.5113436950197592e-02  1.5248457813258513e-02  1.5279671672314032e-02  1.5176240049752161e-02  1.4992038289798712e-02  1.4798914421743501e-02  1.4632250289110055e-02  1.4499170912940191e-02  1.4401196033528640e-02  1.4341900296648502e-02  1.4324135777105479e-02  1.4346638156743766e-02  1.4403491696158455e-02  1.4485811128752003e-02  1.4583939945557369e-02  1.4688614275663328e-02  1.4791022034612102e-02  1.4882414792110700e-02  1.4954171704941045e-02  1.4998241499626811e-02  1.5005459298757125e-02  1.4962695553271749e-02  1.4852897753949431e-02  1.4655077875744976e-02  1.4343214079664802e-02  1.3895483290292776e-02  1.3318619242099931e-02  1.2654246541357363e-02  1.1938194606564270e-02  1.1172454656739559e-02  1.0351592976316371e-02  9.5219796862292417e-03  8.8197083235279014e-03  8.3695643606343829e-03  8.1625610684714894e-03  2.4076670018151537e-02  2.4112001800619603e-02  8.2666805806474713e-03  8.7596624688005102e-03  9.6876807964254175e-03  1.0916924533802771e-02  1.2122013258667113e-02  1.3072642293394259e-02  1.3719167950898704e-02  1.4137426289367622e-02  1.4439738125531058e-02  1.4691931136919197e-02  1.4910448959743128e-02  1.5099515481085481e-02  1.5265715577342919e-02  1.5425424820969130e-02  1.5625855054291829e-02  1.5846630119471565e-02  1.5913153249502428e-02  1.5738900753332147e-02  1.5449355352017413e-02  1.5182045205025096e-02  1.4973716333405485e-02  1.4812872627915519e-02  1.4693559785321528e-02  1.4621190916564563e-02  1.4601245579265960e-02  1.4632667839208767e-02  1.4707606661706462e-02  1.4813933150060389e-02  1.4938571530603562e-02  1.5069810899606906e-02  1.5197689757864209e-02  1.5312649438317592e-02  1.5405373591195374e-02  1.5469936180309268e-02  1.5501447494976613e-02  1.5490085175271895e-02  1.5427477309507814e-02  1.5313075438386278e-02  1.5148993694077323e-02  1.4934324632436564e-02  1.4663759752744528e-02  1.4315400701911639e-02  1.3820010603753950e-02  1.3087851324288476e-02  1.2085294623532718e-02  1.0854800358108350e-02  9.5906467563403926e-03  8.6614627275053459e-03  8.2187810674798842e-03  2.4094533368886277e-02  2.4124265426329446e-02  8.4791518058596332e-03  9.9398935466183929e-03  1.2643045932542174e-02  1.5745725477644738e-02  1.7973355657102112e-02  1.8908108794251428e-02  1.8802493688153232e-02  1.8033651269111873e-02  1.7109418461683575e-02  1.6432046396529381e-02  1.6047869481200152e-02  1.5835594211263269e-02  1.5734468349200510e-02  1.5734992624781081e-02  1.5907721836303242e-02  1.6272703206689793e-02  1.6415739326181830e-02  1.6112895222354328e-02  1.5662567573583135e-02  1.5316228695414776e-02  1.5079649501829880e-02  1.4898110953642303e-02  1.4757733431637818e-02  1.4671395075436904e-02  1.4649645302396413e-02  1.4692044273322998e-02  1.4789398186602819e-02  1.4927195569998768e-02  1.5090503301314208e-02  1.5267989711448361e-02  1.5450967492081601e-02  1.5628470070074639e-02  1.5785160336080611e-02  1.5916127890006185e-02  1.6029237754089244e-02  1.6125712804677880e-02  1.6210440023019398e-02  1.6304994732793111e-02  1.6446984745838111e-02  1.6734671499480207e-02  1.7348669589676537e-02  1.8304482382451411e-02  1.9207874246843653e-02  1.9596231335556887e-02  1.8732617868561931e-02  1.6077108082384446e-02  1.2568483813934286e-02  9.6540372143653196e-03  8.3397091252564587e-03  2.4099844935277750e-02  2.4310808887676928e-02  9.7840756494847227e-03  1.6594982527734552e-02  2.6452276998690075e-02  3.7920232145588366e-02  4.3100078865534505e-02  4.2287899826148063e-02  3.7999323847553203e-02  3.2154537083529028e-02  2.6322651569450323e-02  2.2037864823047787e-02  1.9537187308849346e-02  1.8197378651734521e-02  1.7445969858727178e-02  1.6957825341774500e-02  1.6708356978399508e-02  1.7043259687850656e-02  1.7112285296205620e-02  1.6402538297693003e-02  1.5613383325294279e-02  1.5140112923277951e-02  1.4861574666972212e-02  1.4643300792184136e-02  1.4468772513471572e-02  1.4367040855129305e-02  1.4355353711538156e-02  1.4433102344712644e-02  1.4590491391598005e-02  1.4812938700523637e-02  1.5089094835797647e-02  1.5415446783835648e-02  1.5791099518298102e-02  1.6213657925454626e-02  1.6659299775539708e-02  1.7094166999862853e-02  1.7499233297341335e-02  1.7886709699349149e-02  1.8361230978222391e-02  1.9150536393844182e-02  2.0615940016465127e-02  2.3147165588213850e-02  2.6943045596248556e-02  3.1820666126263684e-02  3.7208044657534037e-02  4.2140466048336170e-02  4.4824994281427076e-02  4.2102110915864355e-02  3.0882859720619285e-02  1.6973643724968686e-02  9.1620514010740915e-03  2.4121381503094529e-02  2.7136666610943824e-02  2.0019637323573754e-02  6.7529368271646406e-02  9.6920201867781580e-02  9.8448297809894267e-02  8.9291008277025755e-02  7.2891155748404809e-02  5.6255802697194136e-02  4.2598828356094194e-02  3.4083937636958953e-02  2.8554719393257037e-02  2.4539889708908323e-02  2.1752982528328725e-02  2.0049211827045818e-02  1.8816094256087774e-02  1.8215485871967869e-02  1.8813966940678363e-02  1.8955235674403909e-02  1.7723069358161529e-02  1.6431030970096891e-02  1.5718999757353427e-02  1.5262961184922010e-02  1.4880972115513976e-02  1.4591211053976400e-02  1.4443969096704170e-02  1.4452562670644185e-02  1.4606989212731798e-02  1.4894092684344606e-02  1.5297542210969271e-02  1.5801215486822204e-02  1.6384894116285777e-02  1.7007920062224895e-02  1.7627653187397722e-02  1.8168399748480266e-02  1.8625573502015123e-02  1.9151391710539006e-02  1.9755124308277659e-02  2.0481125700625276e-02  2.1743225021300078e-02  2.3920996826613597e-02  2.6746377438036241e-02  3.0812385304926158e-02  3.9595250038597367e-02  5.5249321705051417e-02  7.4284441089219333e-02  9.2476791889718135e-02  1.0428710741947618e-01  1.0034516585881051e-01  7.2663301853930579e-02  1.7508909560861555e-02  2.4405081564008585e-02  4.6095505943885097e-02  8.0619119992179522e-02  2.5781803773756629e-01  2.7761443956957632e-01  2.6500268496327861e-01  2.1230184082048512e-01  1.4494195224228423e-01  1.0374536824394169e-01  7.5516348799979885e-02  5.4921285931369197e-02  4.1289642244524576e-02  3.0921872250419584e-02  2.3533797793163232e-02  1.9357928107407080e-02  1.6379271897818279e-02  1.5518960020585011e-02  2.2180580618120067e-02  2.1975815502581542e-02  1.7637495740070515e-02  1.8146253762981589e-02  1.8263204171316910e-02  1.7929156334527740e-02  1.7430360458573047e-02  1.6989767122986901e-02  1.6739612394871685e-02  1.6701922007781179e-02  1.6852643885394224e-02  1.7160844658682249e-02  1.7577893696710117e-02  1.8006664965788829e-02  1.8280488684337480e-02  1.8346258144603715e-02  1.8460693058599979e-02  1.8410690100709316e-02  1.7899632827685183e-02  1.7228815726189090e-02  1.7494043000784859e-02  1.9439243251162898e-02  2.3723562225776353e-02  3.1259411795212820e-02  4.1467090190499281e-02  5.4067573155880337e-02  7.4724023337709056e-02  1.0611281040676925e-01  1.4941548603232216e-01  1.9853958477779285e-01  2.2745723333259324e-01  2.2496382903457623e-01  2.1942922045635668e-01  1.0796410638720545e-01  3.6827665876240347e-02  3.9807586521293514e-01  3.9129375872941041e-01  4.9717917155555558e-01  4.6286738489865381e-01  4.5450773334784039e-01  4.2652930966796199e-01  3.3368783129448637e-01  2.3431006361004988e-01  1.6090522895909171e-01  1.1463131466165138e-01  8.5978671128301987e-02  6.2116479802307882e-02  4.1705001812876348e-02  2.7283397622291886e-02  1.8318202217224321e-02  1.2839654812246137e-02  1.7017247532384254e-02  4.8371609966821806e-02  1.1548718695708969e-02  1.2808863691356392e-02  1.5274946011306835e-02  1.5842233920283846e-02  1.5716599160528942e-02  1.5646775795572714e-02  1.5673694632821228e-02  1.5693332668305346e-02  1.5725471671207046e-02  1.5845157856181444e-02  1.6053151176197704e-02  1.6178411083900571e-02  1.5973354678557095e-02  1.5014786174846313e-02  1.3224472233913417e-02  1.3339377184043461e-02  1.3929661094487240e-02  1.5510608344298307e-02  2.0230020358222647e-02  2.9127488982763593e-02  4.3367672154192370e-02  6.3609601625393489e-02  8.9011490723151870e-02  1.1913901014781433e-01  1.5995043543791571e-01  2.2519715604861995e-01  3.1306147919904681e-01  3.9041842597553422e-01  4.2443618114614595e-01  4.1902173014040434e-01  4.1441133591808027e-01  4.7410647628536939e-01  3.1396432523923362e-01  9.2507511803508902e-01  9.2695039699727788e-01  8.3621633681517193e-01  7.0096339184914180e-01  6.1264607638491464e-01  5.5830198124269825e-01  4.8963390754655467e-01  3.8755491244988610e-01  2.8146543638740729e-01  2.0346035981689886e-01  1.5555434284572239e-01  1.1767020522493227e-01  8.0348712035401990e-02  5.0540819762392580e-02  3.0827427719342215e-02  1.8709645890537210e-02  1.3269256952312361e-02  1.7383231378826920e-02  1.4950979798284317e-02  9.4216176582021978e-03  9.7166043334017474e-03  9.7877300460829757e-03  9.5719045955737735e-03  1.0113221040394877e-02  1.0852481627027386e-02  1.1199613008533699e-02  1.1069783653801263e-02  1.0636837408902790e-02  1.0434184005871646e-02  1.0888795690544358e-02  1.1199079282008750e-02  1.1093965498613217e-02  1.1549997775628394e-02  1.3176435375008302e-02  1.6288343970591944e-02  2.2585554703785114e-02  3.4633543819806066e-02  5.4753107285622500e-02  8.3765805100645699e-02  1.1850688572484319e-01  1.5730254084644427e-01  2.0833009409213532e-01  2.8153823439651088e-01  3.7529611603681107e-01  4.7174686821519113e-01  5.5218514156934029e-01  6.2548614596587848e-01  7.2012052159970263e-01  8.3621904091111954e-01  9.3152575771734669e-01  9.0162540779002576e-01  9.7750739889850380e-01  9.8561044912156681e-01  9.5706619427352491e-01  8.9249000471179074e-01  7.9226063209426711e-01  6.8749076640101259e-01  5.9664161989847353e-01  5.0418591640089905e-01  4.0016257307644687e-01  3.0474876391894695e-01  2.3748983216486375e-01  1.9088185566910598e-01  1.4673816983656843e-01  1.0071874717187931e-01  6.1997764203025968e-02  3.6745704905407073e-02  2.4303667687070887e-02  1.8135276503264089e-02  1.2400303431500087e-02  9.0653327463843109e-03  9.1982101747809034e-03  9.8870370022869358e-03  9.9564337606599454e-03  9.5612132361607358e-03  9.3722141848947699e-03  9.4352478643419876e-03  9.5489762286830940e-03  9.7446074489665885e-03  1.0124489461360353e-02  1.0605221435036088e-02  1.1108345429837768e-02  1.1943686404735782e-02  1.3744657882544808e-02  1.7608681201418099e-02  2.5387668614217471e-02  3.9635591182323474e-02  6.3353149305993173e-02  9.7936928318976657e-02  1.4078349137916163e-01  1.8918261205360937e-01  2.4722305244578591e-01  3.2296072655377767e-01  4.1558447667149945e-01  5.1072844546484975e-01  6.0102860278846315e-01  6.9841779082637812e-01  8.0804222897743372e-01  9.0209792079157614e-01  9.6102227586518063e-01  9.8649448468629608e-01  9.7100405239407739e-01  9.8632585074218360e-01  9.9243872600308425e-01  9.8245614717604590e-01  9.5138334675736158e-01  8.9252295777545920e-01  8.1130673972490663e-01  7.2050773396578949e-01  6.2614468521912769e-01  5.2803983875510563e-01  4.2862538787504867e-01  3.4046927693066847e-01  2.7131526836787773e-01  2.1701779108672989e-01  1.6803818880475485e-01  1.2140524625947810e-01  8.1900067543009561e-02  5.3654277381067955e-02  3.5080889838566789e-02  2.2090520789698545e-02  1.4366473159106816e-02  1.1877082681484588e-02  1.1212455400336822e-02  1.0639689174775674e-02  1.0191962928209342e-02  1.0074421021600465e-02  1.0134818569154519e-02  1.0262875479100722e-02  1.0542155993193712e-02  1.1162511792320098e-02  1.2319160539057399e-02  1.4256776590676090e-02  1.7443774545342086e-02  2.2872697716053034e-02  3.2547931207722536e-02  4.9271720574471878e-02  7.5284414980192088e-02  1.1152515290493520e-01  1.5788346822352378e-01  2.1382129685360823e-01  2.7994995975503262e-01  3.5851534875572100e-01  4.4885635022761350e-01  5.4438284777513413e-01  6.3862457584632715e-01  7.3012593385815017e-01  8.1868384353732548e-01  8.9603314625792185e-01  9.5240996102986231e-01  9.8291023359118679e-01  9.9251660937766439e-01  9.8517490670125829e-01  9.8533851033650266e-01  9.9280794679582685e-01  9.8544388842619701e-01  9.6510596799370463e-01  9.2701519655197595e-01  8.7424057021225976e-01  8.1079836014547069e-01  7.3653849763357682e-01  6.5083654805755697e-01  5.5760598798559702e-01  4.6374368449254749e-01  3.7719109512741783e-01  3.0302414388381843e-01  2.4168327973937706e-01  1.9032423866394610e-01  1.4663431364094481e-01  1.0960419250380721e-01  7.8793688812689888e-02  5.4631580557302245e-02  3.7973241734262198e-02  2.8170580233028805e-02  2.2610687908598506e-02  1.9095787212162416e-02  1.7020498561129790e-02  1.6195609633768024e-02  1.6160221275979408e-02  1.6668665818247150e-02  1.7886893844659996e-02  2.0207590964396782e-02  2.4091319460795416e-02  3.0122641136197240e-02  3.9164218804367337e-02  5.2438954858277639e-02  7.1430348967530116e-02  9.7802572583820871e-02  1.3365483661679634e-01  1.8118732219167738e-01  2.4127640117573812e-01  3.1269250500302320e-01  3.9340900896253872e-01  4.8126286169425159e-01  5.7250558389322925e-01  6.6170007087082305e-01  7.4354159395227137e-01  8.1434348762376108e-01  8.7478108389621623e-01  9.2602853853118616e-01  9.6411772506069593e-01  9.8493620382100089e-01  9.9266436608062480e-01  9.8637220071378040e-01  9.7160758109064382e-01  9.8850239826565722e-01  9.7777393158295389e-01  9.5786276908387646e-01  9.2891323013550686e-01  8.9232423582550968e-01  8.5102061210473101e-01  8.0163153167506251e-01  7.4019201230393017e-01  6.6694870691794794e-01  5.8479971957948651e-01  4.9894038699498355e-01  4.1546390945675366e-01  3.3981940074338945e-01  2.7558472208065121e-01  2.2354838909644542e-01  1.8119646222784441e-01  1.4518954235150272e-01  1.1508543933197003e-01  9.2298437385249801e-02  7.6381766926191558e-02  6.5106311483527718e-02  5.6801238860162695e-02  5.1108811409298432e-02  4.8040742559799260e-02  4.7246301492631093e-02  4.8378179561243156e-02  5.1469912998330175e-02  5.6842182104941366e-02  6.4895840331601631e-02  7.6062747820126952e-02  9.0865928564609622e-02  1.1015440613294232e-01  1.3558667136486541e-01  1.6998051078078419e-01  2.1673124623644605e-01  2.7775629169738231e-01  3.5118379802674266e-01  4.3189952910748863e-01  5.1499381162495328e-01  5.9709846278111978e-01  6.7494634876596127e-01  7.4480569876860137e-01  8.0380559952297248e-01  8.5133862264957461e-01  8.9032813400479993e-01  9.2528011017056544e-01  9.5475452956804363e-01  9.7593239443285407e-01  9.8780492423520527e-01  9.7803133640205442e-01  8.9654785353367172e-01  9.5185293380619684e-01  9.3551765880045790e-01  9.1976045536270556e-01  9.0114282228134435e-01  8.8164393885165926e-01  8.5860340817622149e-01  8.2862597637585078e-01  7.8934131046897749e-01  7.3971557063584437e-01  6.7949918401147336e-01  6.0992551867594325e-01  5.3429819202635631e-01  4.5772284428361742e-01  3.8595989115021112e-01  3.2350136843723531e-01  2.7160077329702437e-01  2.2880119289380599e-01  1.9435433426017640e-01  1.6901878639119203e-01  1.5212002361078497e-01  1.4084384892625612e-01  1.3266556893095749e-01  1.2670630931650984e-01  1.2294679560786273e-01  1.2130065830508693e-01  1.2162268189723054e-01  1.2409077782546310e-01  1.2929938055128534e-01  1.3807512422638923e-01  1.5127771144227037e-01  1.6974175515091439e-01  1.9451737776478634e-01  2.2737164364877405e-01  2.7089578366381328e-01  3.2729130777648763e-01  3.9599611479546637e-01  4.7235396393187562e-01  5.4958785119008102e-01  6.2218442329229784e-01  6.8722560096281116e-01  7.4373465514954029e-01  7.9113288936134207e-01  8.2907351525801509e-01  8.5851159688668299e-01  8.8001081521758384e-01  8.9703503502916593e-01  9.1315046941756817e-01  9.3592727736980352e-01  9.5247492767558095e-01  9.2794513110786092e-01  3.0310375596737305e-01  5.9413025631287830e-01  7.0041509892152598e-01  7.8269411660624666e-01  8.2488816442489543e-01  8.4550153171393971e-01  8.4720122262758701e-01  8.3481114329852535e-01  8.1315898938189379e-01  7.8324814902271067e-01  7.4361660133555874e-01  6.9415066685689142e-01  6.362611282