<?xml version="1.0"?>
<VTKFile type="UnstructuredGrid"  version="0.1"  >
<UnstructuredGrid>
<Piece  NumberOfPoints="2601" NumberOfCells="5000">
<Points>
<DataArray  type="Float64"  NumberOfComponents="3"  format="ascii">0 0 0  0.03 0 0  0.06 0 0  0.09 0 0  0.12 0 0  0.15 0 0  0.18 0 0  0.21 0 0  0.24 0 0  0.27 0 0  0.3 0 0  0.33 0 0  0.36 0 0  0.39 0 0  0.42 0 0  0.45 0 0  0.48 0 0  0.51 0 0  0.54 0 0  0.57 0 0  0.6 0 0  0.63 0 0  0.66 0 0  0.6899999999999999 0 0  0.72 0 0  0.75 0 0  0.78 0 0  0.8100000000000001 0 0  0.84 0 0  0.87 0 0  0.9 0 0  0.93 0 0  0.96 0 0  0.99 0 0  1.02 0 0  1.05 0 0  1.08 0 0  1.11 0 0  1.14 0 0  1.17 0 0  1.2 0 0  1.23 0 0  1.26 0 0  1.29 0 0  1.32 0 0  1.35 0 0  1.38 0 0  1.41 0 0  1.44 0 0  1.47 0 0  1.5 0 0  0 0.02 0  0.03 0.02 0  0.06 0.02 0  0.09 0.02 0  0.12 0.02 0  0.15 0.02 0  0.18 0.02 0  0.21 0.02 0  0.24 0.02 0  0.27 0.02 0  0.3 0.02 0  0.33 0.02 0  0.36 0.02 0  0.39 0.02 0  0.42 0.02 0  0.45 0.02 0  0.48 0.02 0  0.51 0.02 0  0.54 0.02 0  0.57 0.02 0  0.6 0.02 0  0.63 0.02 0  0.66 0.02 0  0.6899999999999999 0.02 0  0.72 0.02 0  0.75 0.02 0  0.78 0.02 0  0.8100000000000001 0.02 0  0.84 0.02 0  0.87 0.02 0  0.9 0.02 0  0.93 0.02 0  0.96 0.02 0  0.99 0.02 0  1.02 0.02 0  1.05 0.02 0  1.08 0.02 0  1.11 0.02 0  1.14 0.02 0  1.17 0.02 0  1.2 0.02 0  1.23 0.02 0  1.26 0.02 0  1.29 0.02 0  1.32 0.02 0  1.35 0.02 0  1.38 0.02 0  1.41 0.02 0  1.44 0.02 0  1.47 0.02 0  1.5 0.02 0  0 0.04 0  0.03 0.04 0  0.06 0.04 0  0.09 0.04 0  0.12 0.04 0  0.15 0.04 0  0.18 0.04 0  0.21 0.04 0  0.24 0.04 0  0.27 0.04 0  0.3 0.04 0  0.33 0.04 0  0.36 0.04 0  0.39 0.04 0  0.42 0.04 0  0.45 0.04 0  0.48 0.04 0  0.51 0.04 0  0.54 0.04 0  0.57 0.04 0  0.6 0.04 0  0.63 0.04 0  0.66 0.04 0  0.6899999999999999 0.04 0  0.72 0.04 0  0.75 0.04 0  0.78 0.04 0  0.8100000000000001 0.04 0  0.84 0.04 0  0.87 0.04 0  0.9 0.04 0  0.93 0.04 0  0.96 0.04 0  0.99 0.04 0  1.02 0.04 0  1.05 0.04 0  1.08 0.04 0  1.11 0.04 0  1.14 0.04 0  1.17 0.04 0  1.2 0.04 0  1.23 0.04 0  1.26 0.04 0  1.29 0.04 0  1.32 0.04 0  1.35 0.04 0  1.38 0.04 0  1.41 0.04 0  1.44 0.04 0  1.47 0.04 0  1.5 0.04 0  0 0.06 0  0.03 0.06 0  0.06 0.06 0  0.09 0.06 0  0.12 0.06 0  0.15 0.06 0  0.18 0.06 0  0.21 0.06 0  0.24 0.06 0  0.27 0.06 0  0.3 0.06 0  0.33 0.06 0  0.36 0.06 0  0.39 0.06 0  0.42 0.06 0  0.45 0.06 0  0.48 0.06 0  0.51 0.06 0  0.54 0.06 0  0.57 0.06 0  0.6 0.06 0  0.63 0.06 0  0.66 0.06 0  0.6899999999999999 0.06 0  0.72 0.06 0  0.75 0.06 0  0.78 0.06 0  0.8100000000000001 0.06 0  0.84 0.06 0  0.87 0.06 0  0.9 0.06 0  0.93 0.06 0  0.96 0.06 0  0.99 0.06 0  1.02 0.06 0  1.05 0.06 0  1.08 0.06 0  1.11 0.06 0  1.14 0.06 0  1.17 0.06 0  1.2 0.06 0  1.23 0.06 0  1.26 0.06 0  1.29 0.06 0  1.32 0.06 0  1.35 0.06 0  1.38 0.06 0  1.41 0.06 0  1.44 0.06 0  1.47 0.06 0  1.5 0.06 0  0 0.08 0  0.03 0.08 0  0.06 0.08 0  0.09 0.08 0  0.12 0.08 0  0.15 0.08 0  0.18 0.08 0  0.21 0.08 0  0.24 0.08 0  0.27 0.08 0  0.3 0.08 0  0.33 0.08 0  0.36 0.08 0  0.39 0.08 0  0.42 0.08 0  0.45 0.08 0  0.48 0.08 0  0.51 0.08 0  0.54 0.08 0  0.57 0.08 0  0.6 0.08 0  0.63 0.08 0  0.66 0.08 0  0.6899999999999999 0.08 0  0.72 0.08 0  0.75 0.08 0  0.78 0.08 0  0.8100000000000001 0.08 0  0.84 0.08 0  0.87 0.08 0  0.9 0.08 0  0.93 0.08 0  0.96 0.08 0  0.99 0.08 0  1.02 0.08 0  1.05 0.08 0  1.08 0.08 0  1.11 0.08 0  1.14 0.08 0  1.17 0.08 0  1.2 0.08 0  1.23 0.08 0  1.26 0.08 0  1.29 0.08 0  1.32 0.08 0  1.35 0.08 0  1.38 0.08 0  1.41 0.08 0  1.44 0.08 0  1.47 0.08 0  1.5 0.08 0  0 0.1 0  0.03 0.1 0  0.06 0.1 0  0.09 0.1 0  0.12 0.1 0  0.15 0.1 0  0.18 0.1 0  0.21 0.1 0  0.24 0.1 0  0.27 0.1 0  0.3 0.1 0  0.33 0.1 0  0.36 0.1 0  0.39 0.1 0  0.42 0.1 0  0.45 0.1 0  0.48 0.1 0  0.51 0.1 0  0.54 0.1 0  0.57 0.1 0  0.6 0.1 0  0.63 0.1 0  0.66 0.1 0  0.6899999999999999 0.1 0  0.72 0.1 0  0.75 0.1 0  0.78 0.1 0  0.8100000000000001 0.1 0  0.84 0.1 0  0.87 0.1 0  0.9 0.1 0  0.93 0.1 0  0.96 0.1 0  0.99 0.1 0  1.02 0.1 0  1.05 0.1 0  1.08 0.1 0  1.11 0.1 0  1.14 0.1 0  1.17 0.1 0  1.2 0.1 0  1.23 0.1 0  1.26 0.1 0  1.29 0.1 0  1.32 0.1 0  1.35 0.1 0  1.38 0.1 0  1.41 0.1 0  1.44 0.1 0  1.47 0.1 0  1.5 0.1 0  0 0.12 0  0.03 0.12 0  0.06 0.12 0  0.09 0.12 0  0.12 0.12 0  0.15 0.12 0  0.18 0.12 0  0.21 0.12 0  0.24 0.12 0  0.27 0.12 0  0.3 0.12 0  0.33 0.12 0  0.36 0.12 0  0.39 0.12 0  0.42 0.12 0  0.45 0.12 0  0.48 0.12 0  0.51 0.12 0  0.54 0.12 0  0.57 0.12 0  0.6 0.12 0  0.63 0.12 0  0.66 0.12 0  0.6899999999999999 0.12 0  0.72 0.12 0  0.75 0.12 0  0.78 0.12 0  0.8100000000000001 0.12 0  0.84 0.12 0  0.87 0.12 0  0.9 0.12 0  0.93 0.12 0  0.96 0.12 0  0.99 0.12 0  1.02 0.12 0  1.05 0.12 0  1.08 0.12 0  1.11 0.12 0  1.14 0.12 0  1.17 0.12 0  1.2 0.12 0  1.23 0.12 0  1.26 0.12 0  1.29 0.12 0  1.32 0.12 0  1.35 0.12 0  1.38 0.12 0  1.41 0.12 0  1.44 0.12 0  1.47 0.12 0  1.5 0.12 0  0 0.14 0  0.03 0.14 0  0.06 0.14 0  0.09 0.14 0  0.12 0.14 0  0.15 0.14 0  0.18 0.14 0  0.21 0.14 0  0.24 0.14 0  0.27 0.14 0  0.3 0.14 0  0.33 0.14 0  0.36 0.14 0  0.39 0.14 0  0.42 0.14 0  0.45 0.14 0  0.48 0.14 0  0.51 0.14 0  0.54 0.14 0  0.57 0.14 0  0.6 0.14 0  0.63 0.14 0  0.66 0.14 0  0.6899999999999999 0.14 0  0.72 0.14 0  0.75 0.14 0  0.78 0.14 0  0.8100000000000001 0.14 0  0.84 0.14 0  0.87 0.14 0  0.9 0.14 0  0.93 0.14 0  0.96 0.14 0  0.99 0.14 0  1.02 0.14 0  1.05 0.14 0  1.08 0.14 0  1.11 0.14 0  1.14 0.14 0  1.17 0.14 0  1.2 0.14 0  1.23 0.14 0  1.26 0.14 0  1.29 0.14 0  1.32 0.14 0  1.35 0.14 0  1.38 0.14 0  1.41 0.14 0  1.44 0.14 0  1.47 0.14 0  1.5 0.14 0  0 0.16 0  0.03 0.16 0  0.06 0.16 0  0.09 0.16 0  0.12 0.16 0  0.15 0.16 0  0.18 0.16 0  0.21 0.16 0  0.24 0.16 0  0.27 0.16 0  0.3 0.16 0  0.33 0.16 0  0.36 0.16 0  0.39 0.16 0  0.42 0.16 0  0.45 0.16 0  0.48 0.16 0  0.51 0.16 0  0.54 0.16 0  0.57 0.16 0  0.6 0.16 0  0.63 0.16 0  0.66 0.16 0  0.6899999999999999 0.16 0  0.72 0.16 0  0.75 0.16 0  0.78 0.16 0  0.8100000000000001 0.16 0  0.84 0.16 0  0.87 0.16 0  0.9 0.16 0  0.93 0.16 0  0.96 0.16 0  0.99 0.16 0  1.02 0.16 0  1.05 0.16 0  1.08 0.16 0  1.11 0.16 0  1.14 0.16 0  1.17 0.16 0  1.2 0.16 0  1.23 0.16 0  1.26 0.16 0  1.29 0.16 0  1.32 0.16 0  1.35 0.16 0  1.38 0.16 0  1.41 0.16 0  1.44 0.16 0  1.47 0.16 0  1.5 0.16 0  0 0.18 0  0.03 0.18 0  0.06 0.18 0  0.09 0.18 0  0.12 0.18 0  0.15 0.18 0  0.18 0.18 0  0.21 0.18 0  0.24 0.18 0  0.27 0.18 0  0.3 0.18 0  0.33 0.18 0  0.36 0.18 0  0.39 0.18 0  0.42 0.18 0  0.45 0.18 0  0.48 0.18 0  0.51 0.18 0  0.54 0.18 0  0.57 0.18 0  0.6 0.18 0  0.63 0.18 0  0.66 0.18 0  0.6899999999999999 0.18 0  0.72 0.18 0  0.75 0.18 0  0.78 0.18 0  0.8100000000000001 0.18 0  0.84 0.18 0  0.87 0.18 0  0.9 0.18 0  0.93 0.18 0  0.96 0.18 0  0.99 0.18 0  1.02 0.18 0  1.05 0.18 0  1.08 0.18 0  1.11 0.18 0  1.14 0.18 0  1.17 0.18 0  1.2 0.18 0  1.23 0.18 0  1.26 0.18 0  1.29 0.18 0  1.32 0.18 0  1.35 0.18 0  1.38 0.18 0  1.41 0.18 0  1.44 0.18 0  1.47 0.18 0  1.5 0.18 0  0 0.2 0  0.03 0.2 0  0.06 0.2 0  0.09 0.2 0  0.12 0.2 0  0.15 0.2 0  0.18 0.2 0  0.21 0.2 0  0.24 0.2 0  0.27 0.2 0  0.3 0.2 0  0.33 0.2 0  0.36 0.2 0  0.39 0.2 0  0.42 0.2 0  0.45 0.2 0  0.48 0.2 0  0.51 0.2 0  0.54 0.2 0  0.57 0.2 0  0.6 0.2 0  0.63 0.2 0  0.66 0.2 0  0.6899999999999999 0.2 0  0.72 0.2 0  0.75 0.2 0  0.78 0.2 0  0.8100000000000001 0.2 0  0.84 0.2 0  0.87 0.2 0  0.9 0.2 0  0.93 0.2 0  0.96 0.2 0  0.99 0.2 0  1.02 0.2 0  1.05 0.2 0  1.08 0.2 0  1.11 0.2 0  1.14 0.2 0  1.17 0.2 0  1.2 0.2 0  1.23 0.2 0  1.26 0.2 0  1.29 0.2 0  1.32 0.2 0  1.35 0.2 0  1.38 0.2 0  1.41 0.2 0  1.44 0.2 0  1.47 0.2 0  1.5 0.2 0  0 0.22 0  0.03 0.22 0  0.06 0.22 0  0.09 0.22 0  0.12 0.22 0  0.15 0.22 0  0.18 0.22 0  0.21 0.22 0  0.24 0.22 0  0.27 0.22 0  0.3 0.22 0  0.33 0.22 0  0.36 0.22 0  0.39 0.22 0  0.42 0.22 0  0.45 0.22 0  0.48 0.22 0  0.51 0.22 0  0.54 0.22 0  0.57 0.22 0  0.6 0.22 0  0.63 0.22 0  0.66 0.22 0  0.6899999999999999 0.22 0  0.72 0.22 0  0.75 0.22 0  0.78 0.22 0  0.8100000000000001 0.22 0  0.84 0.22 0  0.87 0.22 0  0.9 0.22 0  0.93 0.22 0  0.96 0.22 0  0.99 0.22 0  1.02 0.22 0  1.05 0.22 0  1.08 0.22 0  1.11 0.22 0  1.14 0.22 0  1.17 0.22 0  1.2 0.22 0  1.23 0.22 0  1.26 0.22 0  1.29 0.22 0  1.32 0.22 0  1.35 0.22 0  1.38 0.22 0  1.41 0.22 0  1.44 0.22 0  1.47 0.22 0  1.5 0.22 0  0 0.24 0  0.03 0.24 0  0.06 0.24 0  0.09 0.24 0  0.12 0.24 0  0.15 0.24 0  0.18 0.24 0  0.21 0.24 0  0.24 0.24 0  0.27 0.24 0  0.3 0.24 0  0.33 0.24 0  0.36 0.24 0  0.39 0.24 0  0.42 0.24 0  0.45 0.24 0  0.48 0.24 0  0.51 0.24 0  0.54 0.24 0  0.57 0.24 0  0.6 0.24 0  0.63 0.24 0  0.66 0.24 0  0.6899999999999999 0.24 0  0.72 0.24 0  0.75 0.24 0  0.78 0.24 0  0.8100000000000001 0.24 0  0.84 0.24 0  0.87 0.24 0  0.9 0.24 0  0.93 0.24 0  0.96 0.24 0  0.99 0.24 0  1.02 0.24 0  1.05 0.24 0  1.08 0.24 0  1.11 0.24 0  1.14 0.24 0  1.17 0.24 0  1.2 0.24 0  1.23 0.24 0  1.26 0.24 0  1.29 0.24 0  1.32 0.24 0  1.35 0.24 0  1.38 0.24 0  1.41 0.24 0  1.44 0.24 0  1.47 0.24 0  1.5 0.24 0  0 0.26 0  0.03 0.26 0  0.06 0.26 0  0.09 0.26 0  0.12 0.26 0  0.15 0.26 0  0.18 0.26 0  0.21 0.26 0  0.24 0.26 0  0.27 0.26 0  0.3 0.26 0  0.33 0.26 0  0.36 0.26 0  0.39 0.26 0  0.42 0.26 0  0.45 0.26 0  0.48 0.26 0  0.51 0.26 0  0.54 0.26 0  0.57 0.26 0  0.6 0.26 0  0.63 0.26 0  0.66 0.26 0  0.6899999999999999 0.26 0  0.72 0.26 0  0.75 0.26 0  0.78 0.26 0  0.8100000000000001 0.26 0  0.84 0.26 0  0.87 0.26 0  0.9 0.26 0  0.93 0.26 0  0.96 0.26 0  0.99 0.26 0  1.02 0.26 0  1.05 0.26 0  1.08 0.26 0  1.11 0.26 0  1.14 0.26 0  1.17 0.26 0  1.2 0.26 0  1.23 0.26 0  1.26 0.26 0  1.29 0.26 0  1.32 0.26 0  1.35 0.26 0  1.38 0.26 0  1.41 0.26 0  1.44 0.26 0  1.47 0.26 0  1.5 0.26 0  0 0.28 0  0.03 0.28 0  0.06 0.28 0  0.09 0.28 0  0.12 0.28 0  0.15 0.28 0  0.18 0.28 0  0.21 0.28 0  0.24 0.28 0  0.27 0.28 0  0.3 0.28 0  0.33 0.28 0  0.36 0.28 0  0.39 0.28 0  0.42 0.28 0  0.45 0.28 0  0.48 0.28 0  0.51 0.28 0  0.54 0.28 0  0.57 0.28 0  0.6 0.28 0  0.63 0.28 0  0.66 0.28 0  0.6899999999999999 0.28 0  0.72 0.28 0  0.75 0.28 0  0.78 0.28 0  0.8100000000000001 0.28 0  0.84 0.28 0  0.87 0.28 0  0.9 0.28 0  0.93 0.28 0  0.96 0.28 0  0.99 0.28 0  1.02 0.28
[...]
<PointData  Scalars="ControlVisualisation"> 
<DataArray  type="Float64"  Name="ControlVisualisation"  format="ascii">1.7031583033062507e-02  9.9522595598898478e-03  9.9784946345271991e-03  1.0026166906447989e-02  1.0098972291930089e-02  1.0194377509656481e-02  1.0304098178184180e-02  1.0416573670503658e-02  1.0520627174143510e-02  1.0609354921181514e-02  1.0682247397266954e-02  1.0743887991595091e-02  1.0800144535838184e-02  1.0854778704282128e-02  1.0908417442067130e-02  1.0959517608919882e-02  1.1005875507354101e-02  1.1045690922418076e-02  1.1078017859478213e-02  1.1102811762865608e-02  1.1120761845880185e-02  1.1133012517255222e-02  1.1140857517245424e-02  1.1145480378633103e-02  1.1147777932158397e-02  1.1148263368904794e-02  1.1147026834362077e-02  1.1143733375223105e-02  1.1137650237418285e-02  1.1127713650649476e-02  1.1112662115261865e-02  1.1091258380289466e-02  1.1062581668078768e-02  1.1026325162263886e-02  1.0983031394423914e-02  1.0934198957307982e-02  1.0882063450419026e-02  1.0828680067024414e-02  1.0774250835617727e-02  1.0715718114999127e-02  1.0647422690939448e-02  1.0564391420675369e-02  1.0465963859558620e-02  1.0356734637405718e-02  1.0245027494337942e-02  1.0141272720571068e-02  1.0055923355173052e-02  9.9957036551145684e-03  9.9611012060746365e-03  9.9434719726942053e-03  2.4196116641066467e-02  9.9472390429639831e-03  4.4942290238444843e-03  4.5531919046218894e-03  4.6481879705144100e-03  4.7899351250288956e-03  4.9770535106153681e-03  5.1963509665193079e-03  5.4204484354797473e-03  5.6168775112920115e-03  5.7643158221823004e-03  5.8656662517628869e-03  5.9467306309530059e-03  6.0386666338786699e-03  6.1585291532833646e-03  6.3037615960581730e-03  6.4601909536394601e-03  6.6122309736928488e-03  6.7483374224180034e-03  6.8621050072447017e-03  6.9515365203035098e-03  7.0178903840714055e-03  7.0644418355061619e-03  7.0952751774364907e-03  7.1142920619133680e-03  7.1245592654133848e-03  7.1279729064761335e-03  7.1251316825683142e-03  7.1153161412784403e-03  7.0965232061084953e-03  7.0655854394574731e-03  7.0184938989459496e-03  6.9510622429444814e-03  6.8599400302919861e-03  6.7438221862807859e-03  6.6047883956478724e-03  6.4499067819533996e-03  6.2925521716941067e-03  6.1506991000617531e-03  6.0385318748498416e-03  5.9537536024901021e-03  5.8732580472363322e-03  5.7665230585679204e-03  5.6156717889619678e-03  5.4231752263231674e-03  5.2055632762952990e-03  4.9864729198202118e-03  4.7910786438543698e-03  4.6398068159653437e-03  4.5433539116609481e-03  4.4839444412132640e-03  9.9426855193631355e-03  9.9560065121522753e-03  4.5075326821491062e-03  4.5795107666316594e-03  4.6943681240179426e-03  4.8579684025913672e-03  5.0554965624407394e-03  5.2761742245390104e-03  5.4994079363628739e-03  5.6878588737072008e-03  5.8046891242415008e-03  5.8466431560091486e-03  5.8571126778230939e-03  5.8968870738478132e-03  6.0007870377215555e-03  6.1646777647917372e-03  6.3630154708087250e-03  6.5684560141534287e-03  6.7602564648606561e-03  6.9253084288205882e-03  7.0573153959784043e-03  7.1557535489923177e-03  7.2243456165364817e-03  7.2690608746884128e-03  7.2961873457382254e-03  7.3109370223923484e-03  7.3166646064887902e-03  7.3145471013712632e-03  7.3035432213031659e-03  7.2805107953436629e-03  7.2404767036499604e-03  7.1772323757062911e-03  7.0845010218273177e-03  6.9576317346693728e-03  6.7953271088629225e-03  6.6011754790158278e-03  6.3859151128699485e-03  6.1709976838247166e-03  5.9887405123881174e-03  5.8682814642010070e-03  5.8082148043022974e-03  5.7680937643540958e-03  5.7021817651207313e-03  5.5959395253315225e-03  5.4589472056313058e-03  5.2947179372210378e-03  5.1019092055638558e-03  4.8944770797757463e-03  4.7065191708854960e-03  4.5788227117963091e-03  4.5072549446719540e-03  9.9508656792759720e-03  9.9610483697132740e-03  4.5144607019923372e-03  4.5999816529275379e-03  4.7696075683949062e-03  4.9840486193965979e-03  5.1996255598507415e-03  5.4385502034651687e-03  5.7415924562436230e-03  6.1092797010582761e-03  6.4965011337655768e-03  6.8375105648258439e-03  7.0811955863440204e-03  7.2186103422638287e-03  7.2729151286694063e-03  7.2758940780739551e-03  7.2579320469084788e-03  7.2418830869091788e-03  7.2383890961889089e-03  7.2470856045548024e-03  7.2620984346920409e-03  7.2774223393889254e-03  7.2895987153541245e-03  7.2978305082189790e-03  7.3029160352755806e-03  7.3061098109253250e-03  7.3083468933363704e-03  7.3098895519594642e-03  7.3103387027700223e-03  7.3088935578179900e-03  7.3047474673877330e-03  7.2976679336932068e-03  7.2889018687411142e-03  7.2820353751000544e-03  7.2824427582729861e-03  7.2940292765156997e-03  7.3143662388288413e-03  7.3320660037840962e-03  7.3282867597146903e-03  7.2749814385280401e-03  7.1244239171482093e-03  6.8256336818051863e-03  6.3917386953527069e-03  5.9307417762811607e-03  5.5770878882591413e-03  5.3756446237848629e-03  5.2362921302725185e-03  5.0400824360622952e-03  4.7871638097753480e-03  4.5902757943075967e-03  4.5113439113763261e-03  9.9582509554669435e-03  9.9518297141006837e-03  4.5249637795748490e-03  4.7263397129659428e-03  5.1362408918004671e-03  5.5568869322000711e-03  5.9235996997127338e-03  6.3905004542022317e-03  7.0464428608902133e-03  7.8325523926309204e-03  8.5302114359602429e-03  8.8989249591430730e-03  8.8713409417982073e-03  8.5641304507570806e-03  8.1234012525445293e-03  7.6395024507102810e-03  7.1694175390400600e-03  6.7547939835869292e-03  6.4175065297568806e-03  6.1588898694897934e-03  5.9674905456814989e-03  5.8282560834222313e-03  5.7280897347746773e-03  5.6575391856290708e-03  5.6104803375264869e-03  5.5831987573848399e-03  5.5734610083812489e-03  5.5799068931468021e-03  5.6020090202621789e-03  5.6405859102920050e-03  5.6985973752718203e-03  5.7820723341973843e-03  5.9013329684852109e-03  6.0720978244287183e-03  6.3141817856825141e-03  6.6449392802532536e-03  7.0686386779904645e-03  7.5693963161226063e-03  8.1147526941032638e-03  8.6568045884610687e-03  9.0888536671357503e-03  9.1927425130529164e-03  8.7723526775418809e-03  7.9250948942090477e-03  7.0421764925892652e-03  6.4159351953842897e-03  6.0468832579994788e-03  5.7303702082698443e-03  5.2268684314521613e-03  4.7103834788904016e-03  4.5092848517428244e-03  9.9553822653545496e-03  9.9307761497619204e-03  4.6305546890163078e-03  5.3639163143746511e-03  7.0894868661598581e-03  9.9875107556468001e-03  1.2510087559046437e-02  1.4149130039419977e-02  1.5614718550887155e-02  1.6619368570717469e-02  1.6704588644888330e-02  1.5793747566585178e-02  1.4206738368187935e-02  1.2452022070497712e-02  1.0878753830755220e-02  9.5619070456528787e-03  8.4520596957993327e-03  7.5053530206454777e-03  6.7041438712564932e-03  6.0379442139604431e-03  5.4930365561002836e-03  5.0540706963784696e-03  4.7081048375014131e-03  4.4462714620892366e-03  4.2633352723809789e-03  4.1564514963260760e-03  4.1237983461576630e-03  4.1635449451444539e-03  4.2736641919514581e-03  4.4527515882835725e-03  4.7014360097043309e-03  5.0238647595688968e-03  5.4292730924442728e-03  5.9336626474392473e-03  6.5601943716495775e-03  7.3363711084893507e-03  8.2903051536761460e-03  9.4545967588599844e-03  1.0878413383341085e-02  1.2609183283843514e-02  1.4576101291768215e-02  1.6434177609477671e-02  1.7656268857132465e-02  1.7926778912714478e-02  1.7293164010132867e-02  1.5585955091720033e-02  1.2865008864695208e-02  9.9089682793992925e-03  7.3233170976780976e-03  5.3924793457294506e-03  4.5420877182917180e-03  9.9334005370035269e-03  1.0060156155857800e-02  6.1412572181789998e-03  1.4273455853900274e-02  2.9386975322267257e-02  3.7387087397739521e-02  4.7104362048382961e-02  5.3002876300647039e-02  5.3582239086699929e-02  5.1388140255025971e-02  4.7216225912046564e-02  4.1812710286118868e-02  3.5942128497085168e-02  3.0308773309438597e-02  2.5445971565173142e-02  2.1521660539028153e-02  1.8401839557184621e-02  1.5878800932259324e-02  1.3796606270345749e-02  1.2057039245355186e-02  1.0598602904062573e-02  9.3852830209317367e-03  8.3998799047389355e-03  7.6366817029044909e-03  7.0950532270166455e-03  6.7755041077423028e-03  6.6776057707882835e-03  6.7989286465503646e-03  7.1350630807386767e-03  7.6809409544075780e-03  8.4330076110047253e-03  9.3914611276415816e-03  1.0562735157616063e-02  1.1963907552104122e-02  1.3630549365652500e-02  1.5628056103633214e-02  1.8067461823562961e-02  2.1123192224704754e-02  2.5017296559781479e-02  2.9891784273078509e-02  3.5585485846762743e-02  4.1592978284121035e-02  4.7381736389192367e-02  5.2598416137891416e-02  5.6664740724926069e-02  5.7765682731830401e-02  5.4741456019313711e-02  4.8566304423966630e-02  3.2081528260293028e-02  1.2931702536796361e-02  5.2389669957509377e-03  9.9037319020540068e-03  1.1449282294738308e-02  1.3321412241059823e-02  3.5485410727142605e-02  9.2782646498974775e-02  1.3032002121577721e-01  1.2593105030119089e-01  1.2580468177358628e-01  1.1830619351234101e-01  1.0659058234898096e-01  9.3895537537044868e-02  8.1426827127147342e-02  6.9675119045285172e-02  5.8910849647408864e-02  4.9497290388489684e-02  4.1656825116975715e-02  3.5256741905752439e-02  2.9969536521456508e-02  2.5508360366746016e-02  2.1701677325781515e-02  1.8462869844708713e-02  1.5751367847803746e-02  1.3549752386533664e-02  1.1850528808105110e-02  1.0648606153040641e-02  9.9381731811737928e-03  9.7118912067663821e-03  9.9607772865138444e-03  1.0674705511658916e-02  1.1844159390836523e-02  1.3463447039951587e-02  1.5535172287186857e-02  1.8076512528452410e-02  2.1129768008118166e-02  2.4780632423901050e-02  2.9183715920602177e-02  3.4579116212007419e-02  4.1246915796732078e-02  4.9316129940039963e-02  5.8460165911044595e-02  6.7849431481434311e-02  7.6813082982255670e-02  8.5915023663929918e-02  9.7192138851821847e-02  1.1216231102788032e-01  1.2763880693650631e-01  1.3541298564565180e-01  1.2964458775272381e-01  1.0532004501730693e-01  8.5189172524422679e-02  1.3428443204431532e-02  1.0081456942042162e-02  2.1390206898621769e-02  6.9886434885457233e-02  2.2618649165407789e-01  2.9428662111151260e-01  3.5445221261205290e-01  3.1736286783496170e-01  2.6976390537862754e-01  2.3384329511218935e-01  2.0479695153345590e-01  1.8022846864886094e-01  1.5728844960580959e-01  1.3430067287134873e-01  1.1107861903257779e-01  8.8804638878288988e-02  6.9136238496821462e-02  5.3123973352445869e-02  4.0823189461708764e-02  3.1611124315627986e-02  2.4678418784617129e-02  1.9343751877875293e-02  1.5153987263377827e-02  1.1858297277696106e-02  9.3403845014667919e-03  7.5560126619189649e-03  6.4916478440623093e-03  6.1426758845290752e-03  6.5049426887367756e-03  7.5753678442841976e-03  9.3607976010143534e-03  1.1896679497254370e-02  1.5277870715756425e-02  1.9702037546978413e-02  2.5519498216728970e-02  3.3268744217073154e-02  4.3652245045785604e-02  5.7379867564537751e-02  7.4813347080492199e-02  9.5465413437312130e-02  1.1769515609486828e-01  1.3918659883447715e-01  1.5847652716778171e-01  1.7681363206061398e-01  1.9858870297109738e-01  2.2812484575399103e-01  2.6364760434871076e-01  2.9522740366326172e-01  3.0991601408193975e-01  2.9554096552844195e-01  2.6679820930771164e-01  1.1455494901940783e-01  1.7080963918209353e-02  3.8713451295327422e-01  4.7834178737845551e-01  5.6620109712004363e-01  5.4903473288570837e-01  5.5885397421976901e-01  5.3004217650452923e-01  4.7709608790412256e-01  4.2696215665297443e-01  3.8454999413873542e-01  3.4945098411375092e-01  3.1743932777116318e-01  2.8468999020567293e-01  2.4940751942420580e-01  2.1206694015888516e-01  1.7471656478121700e-01  1.3976216307138806e-01  1.0897252650658121e-01  8.3137022654681259e-02  6.2237722932154182e-02  4.5793550229123681e-02  3.3156327561126797e-02  2.3695750512768177e-02  1.6887447224649160e-02  1.2338790567469421e-02  9.7843945336747451e-03  9.0728113801862298e-03  1.0155678383438449e-02  1.3084033432942815e-02  1.8013314153022597e-02  2.5216030976886766e-02  3.5096393205810372e-02  4.8192971174564919e-02  6.5145885878009874e-02  8.6599672538280631e-02  1.1301775170433578e-01  1.4440416069532888e-01  1.7997880417567960e-01  2.1796872728693706e-01  2.5584069728622272e-01  2.9129564466950020e-01  3.2387302879820479e-01  3.5612676409393751e-01  3.9247486628129269e-01  4.3472777597733869e-01  4.7829537540389472e-01  5.1359278987891577e-01  5.3257559271448618e-01  5.2444958145265164e-01  4.9821413454657754e-01  4.9255912570325994e-01  3.4542215387555741e-01  9.2983236633476529e-01  9.1907071980072397e-01  8.3736903348938685e-01  7.9333496653827695e-01  7.7004870570254225e-01  7.2645697538161402e-01  6.7279846924525766e-01  6.1590112165816746e-01  5.6380799734907883e-01  5.2043853219186453e-01  4.8363532813711829e-01  4.4885657612337465e-01  4.1259257977438735e-01  3.7350876423542712e-01  3.3222344230687995e-01  2.9049070125471721e-01  2.5030970136644004e-01  2.1331944867287478e-01  1.8057241309793692e-01  1.5257571466142483e-01  1.2944377905070234e-01  1.1105770995382896e-01  9.7189162492736347e-02  8.7585146122709179e-02  8.2023963059525085e-02  8.0351373108662943e-02  8.2500662848356859e-02  8.8497226426630327e-02  9.8448956998605480e-02  1.1252577506997871e-01  1.3093105395964136e-01  1.5386187150379890e-01  1.8144577632398126e-01  2.1363717368541393e-01  2.5006738597563749e-01  2.8987626491050972e-01  3.3161215254835213e-01  3.7336191473198588e-01  4.1330390384421306e-01  4.5071987691161319e-01  4.8704402698780569e-01  5.2586686209567601e-01  5.7064990695890871e-01  6.2143181984578144e-01  6.7385226572155910e-01  7.1998723462754899e-01  7.5800592463950078e-01  7.9242939887995412e-01  8.3619632306662817e-01  9.2323982419210149e-01  9.0636527897974040e-01  9.8331784371297604e-01  9.8710434207426923e-01  9.6884910652297496e-01  9.2440725851514305e-01  8.8661169737910173e-01  8.5955923433540771e-01  8.1035419138435916e-01  7.5116244476577287e-01  6.9563629107820912e-01  6.4870646447861546e-01  6.1041834377625048e-01  5.7695628220120199e-01  5.4409981612504688e-01  5.0931124597578858e-01  4.7203718960837610e-01  4.3314332312522996e-01  3.9415121271951836e-01  3.5663740767297186e-01  3.2190924001916366e-01  2.9091099894261907e-01  2.6425649985198929e-01  2.4230253030864851e-01  2.2522140613611705e-01  2.1306358727989133e-01  2.0581251254859537e-01  2.0343082674188023e-01  2.0589185188776860e-01  2.1318979200122470e-01  2.2532739270999269e-01  2.4228668918384255e-01  2.6399161804118437e-01  2.9026701258272741e-01  3.2078906308662791e-01  3.5501787241659660e-01  3.9211638598525572e-01  4.3089613618633643e-01  4.6987749540694052e-01  5.0758450781985631e-01  5.4316085883519416e-01  5.7720215266065167e-01  6.1229705313577909e-01  6.5234032055329005e-01  7.0021495555787072e-01  7.5568380540162938e-01  8.1277490783373163e-01  8.5776848928213734e-01  8.8638617610601955e-01  9.3204814361037081e-01  9.7429825667941528e-01  9.8818774277688615e-01  9.7706549339325366e-01  9.8980245613066153e-01  9.9366972842109103e-01  9.8708969084626286e-01  9.6867221018953975e-01  9.3641714138284127e-01  9.1266960580462897e-01  8.8364480358328701e-01  8.3725177406565465e-01  7.8804760925127626e-01  7.4452968801512909e-01  7.0876413881064204e-01  6.7842957332506693e-01  6.4961843490028948e-01  6.1937600992176778e-01  5.8657631702658009e-01  5.5164300204008809e-01  5.1586804351240112e-01  4.8078697510314539e-01  4.4778640855726282e-01  4.1794154893264113e-01  3.9200239254712360e-01  3.7044472366124032e-01  3.5353627693212641e-01  3.4140108815064407e-01  3.3407889615113251e-01  3.3157557138655602e-01  3.3389649197611682e-01  3.4105523596573578e-01  3.5305590250308089e-01  3.6985521305134655e-01  3.9131492341626989e-01  4.1715212025460124e-01  4.4688675233117792e-01  4.7978323812304524e-01  5.1480018603438693e-01  5.5059975757427260e-01  5.8570290503125511e-01  6.1887415630494358e-01  6.4974487800745251e-01  6.7948518419557979e-01  7.1100170767300652e-01  7.4791566409907029e-01  7.9225279441865704e-01  8.4203218076565223e-01  8.8744536377295691e-01  9.1405410058089853e-01  9.3726424615349158e-01  9.7015414747833395e-01  9.8792368202866554e-01  9.9376613800005686e-01  9.8860457244363031e-01  9.8867785849811174e-01  9.9392100757151547e-01  9.8874125221803633e-01  9.7425492180384388e-01  9.4908853542959593e-01  9.3067729591972870e-01  9.1226883223545763e-01  8.7932874034704123e-01  8.4146973702148764e-01  8.0723198316925238e-01  7.7895565845781578e-01  7.5507321998686994e-01  7.3225441160904992e-01  7.0766167435555449e-01  6.8003470573208824e-01  6.4964555864966611e-01  6.1773449796350810e-01  5.8589362025664593e-01  5.5562355695615273e-01  5.2811120127295230e-01  5.0417755168942402e-01  4.8431851759998706e-01  4.6878181984128514e-01  4.5765203437968638e-01  4.5093133083210601e-01  4.4860608533152035e-01  4.5068882772642482e-01  4.5722742153802887e-01  4.6827990153381782e-01  4.8386143015610661e-01  5.0387533885712843e-01  5.2803977413528469e-01  5.5581626188022504e-01  5.8634627468104572e-01  6.1841991443565403e-01  6.5053478164427125e-01  6.8112157113382965e-01  7.0897840288798319e-01  7.3385906881366225e-01  7.5699840604198798e-01  7.8113857972527745e-01  8.0951730616782158e-01  8.4373550776110673e-01  8.8145658724261744e-01  9.1428014081436193e-01  9.3235278572031466e-01  9.4940592109366817e-01  9.7327383201728046e-01  9.8797949789769879e-01  9.9378513310738759e-01  9.8981663519230356e-01  9.7728891511074645e-01  9.8902091487017396e-01  9.8000557547173983e-01  9.5758225696564836e-01  9.3379852462350688e-01  9.2640453270379131e-01  9.1335595485194776e-01  8.8729653802223207e-01  8.5893662809261950e-01  8.3499905558483889e-01  8.1647228679286243e-01  8.0129835224251300e-01  7.8623704509377779e-01  7.6865391156574792e-01  7.4739814815235706e-01  7.2276674827373166e-01  6.9601243262808155e-01  6.6876738984737560e-01  6.4259246225054445e-01  6.1872504846264842e-01  5.9800246287626047e-01  5.8089628424554607e-01  5.6759963416689507e-01  5.5813135891409726e-01  5.5243615014484726e-01  5.5046553246602992e-01  5.5222758751414436e-01  5.5779755525051311e-01  5.6728780540681467e-01  5.8078302430437900e-01  5.9825274359017311e-01  6.1945598605500252e-01  6.4385146550934247e-01  6.7052801779500515e-01  6.9818538002256803e-01  7.2522300472470946e-01  7.5000010522926186e-01  7.7127571640528092e-01  7.8874100940123226e-01  8.0346346004630065e-01  8.1796334139260107e-01  8.3554936050980666e-01  8.5863187571069899e-01  8.8645154951587823e-01  9.1342993191493727e-01  9.2885715154906356e-01  9.3539323967903631e-01  9.5405058070576410e-01  9.7644383124058998e-01  9.8809713512453479e-01  9.8350837431992133e-01  9.0450233954407577e-01  9.3650268284318439e-01  8.9426692852031930e-01  8.8317599840496508e-01  8.9157477848256228e-01  8.9347219553446555e-01  8.8236368638283502e-01  8.6324466617374696e-01  8.4494668525395866e-01  8.3174083429669654e-01  8.2343913073645980e-01  8.1735444616791164e-01  8.1020608077837497e-01  7.9966651734322580e-01  7.8491181108375674e-01  7.6644418795387514e-01  7.4559906947701204e-01  7.2400787850432613e-01  7.0317922894281348e-01  6.8426565285569552e-01  6.6799896431252870e-01  6.5473613435964595e-01  6.4455969910567634e-01  6.3739434298579623e-01  6.3311544890705640e-01  6.3163378978788809e-01  6.3294618192023122e-01  6.3714658229100374e-01  6.4439646865169620e-01  6.5485812671375410e-01  6.6860003980846516e-01  6.8548875175232438e-01  7.0508429544340645e-01  7.2655844046186024e-01  7.4866623202360616e-01  7.6982517612373913e-01  7.8836240168355110e-01  8.0293129260655005e-01  8.1299954937498331e-01  8.1926512296581033e-01  8.2386075607872433e-01  8.3012301008354861e-01  8.4150773466176054e-01  8.5932740840823896e-01  8.8064532258049733e-01  8.9634947840485235e-01  8.9568198858046855e-01  8.7988405155017813e-01  8.9378488920496457e-01  9.3603166288346051e-01  9.3144081814816448e-01  3.3637315811264767e-01  5.3533491210432271e-01  6.1137910858716349e-01  6.9850433031301784e-01  7.6258256522151191e-01  7.9378277300623634e-01  8.0373628004574382e-01  8.0305894757161089e-01  8.0069574514312192e-01  8.0101447350511579e-01  8.0390624291167334e-01  8.0675995980632209e-01  8.067913724