<?xml version="1.0"?>
<VTKFile type="UnstructuredGrid"  version="0.1"  >
<UnstructuredGrid>
<Piece  NumberOfPoints="2601" NumberOfCells="5000">
<Points>
<DataArray  type="Float64"  NumberOfComponents="3"  format="ascii">0 0 0  0.03 0 0  0.06 0 0  0.09 0 0  0.12 0 0  0.15 0 0  0.18 0 0  0.21 0 0  0.24 0 0  0.27 0 0  0.3 0 0  0.33 0 0  0.36 0 0  0.39 0 0  0.42 0 0  0.45 0 0  0.48 0 0  0.51 0 0  0.54 0 0  0.57 0 0  0.6 0 0  0.63 0 0  0.66 0 0  0.6899999999999999 0 0  0.72 0 0  0.75 0 0  0.78 0 0  0.8100000000000001 0 0  0.84 0 0  0.87 0 0  0.9 0 0  0.93 0 0  0.96 0 0  0.99 0 0  1.02 0 0  1.05 0 0  1.08 0 0  1.11 0 0  1.14 0 0  1.17 0 0  1.2 0 0  1.23 0 0  1.26 0 0  1.29 0 0  1.32 0 0  1.35 0 0  1.38 0 0  1.41 0 0  1.44 0 0  1.47 0 0  1.5 0 0  0 0.02 0  0.03 0.02 0  0.06 0.02 0  0.09 0.02 0  0.12 0.02 0  0.15 0.02 0  0.18 0.02 0  0.21 0.02 0  0.24 0.02 0  0.27 0.02 0  0.3 0.02 0  0.33 0.02 0  0.36 0.02 0  0.39 0.02 0  0.42 0.02 0  0.45 0.02 0  0.48 0.02 0  0.51 0.02 0  0.54 0.02 0  0.57 0.02 0  0.6 0.02 0  0.63 0.02 0  0.66 0.02 0  0.6899999999999999 0.02 0  0.72 0.02 0  0.75 0.02 0  0.78 0.02 0  0.8100000000000001 0.02 0  0.84 0.02 0  0.87 0.02 0  0.9 0.02 0  0.93 0.02 0  0.96 0.02 0  0.99 0.02 0  1.02 0.02 0  1.05 0.02 0  1.08 0.02 0  1.11 0.02 0  1.14 0.02 0  1.17 0.02 0  1.2 0.02 0  1.23 0.02 0  1.26 0.02 0  1.29 0.02 0  1.32 0.02 0  1.35 0.02 0  1.38 0.02 0  1.41 0.02 0  1.44 0.02 0  1.47 0.02 0  1.5 0.02 0  0 0.04 0  0.03 0.04 0  0.06 0.04 0  0.09 0.04 0  0.12 0.04 0  0.15 0.04 0  0.18 0.04 0  0.21 0.04 0  0.24 0.04 0  0.27 0.04 0  0.3 0.04 0  0.33 0.04 0  0.36 0.04 0  0.39 0.04 0  0.42 0.04 0  0.45 0.04 0  0.48 0.04 0  0.51 0.04 0  0.54 0.04 0  0.57 0.04 0  0.6 0.04 0  0.63 0.04 0  0.66 0.04 0  0.6899999999999999 0.04 0  0.72 0.04 0  0.75 0.04 0  0.78 0.04 0  0.8100000000000001 0.04 0  0.84 0.04 0  0.87 0.04 0  0.9 0.04 0  0.93 0.04 0  0.96 0.04 0  0.99 0.04 0  1.02 0.04 0  1.05 0.04 0  1.08 0.04 0  1.11 0.04 0  1.14 0.04 0  1.17 0.04 0  1.2 0.04 0  1.23 0.04 0  1.26 0.04 0  1.29 0.04 0  1.32 0.04 0  1.35 0.04 0  1.38 0.04 0  1.41 0.04 0  1.44 0.04 0  1.47 0.04 0  1.5 0.04 0  0 0.06 0  0.03 0.06 0  0.06 0.06 0  0.09 0.06 0  0.12 0.06 0  0.15 0.06 0  0.18 0.06 0  0.21 0.06 0  0.24 0.06 0  0.27 0.06 0  0.3 0.06 0  0.33 0.06 0  0.36 0.06 0  0.39 0.06 0  0.42 0.06 0  0.45 0.06 0  0.48 0.06 0  0.51 0.06 0  0.54 0.06 0  0.57 0.06 0  0.6 0.06 0  0.63 0.06 0  0.66 0.06 0  0.6899999999999999 0.06 0  0.72 0.06 0  0.75 0.06 0  0.78 0.06 0  0.8100000000000001 0.06 0  0.84 0.06 0  0.87 0.06 0  0.9 0.06 0  0.93 0.06 0  0.96 0.06 0  0.99 0.06 0  1.02 0.06 0  1.05 0.06 0  1.08 0.06 0  1.11 0.06 0  1.14 0.06 0  1.17 0.06 0  1.2 0.06 0  1.23 0.06 0  1.26 0.06 0  1.29 0.06 0  1.32 0.06 0  1.35 0.06 0  1.38 0.06 0  1.41 0.06 0  1.44 0.06 0  1.47 0.06 0  1.5 0.06 0  0 0.08 0  0.03 0.08 0  0.06 0.08 0  0.09 0.08 0  0.12 0.08 0  0.15 0.08 0  0.18 0.08 0  0.21 0.08 0  0.24 0.08 0  0.27 0.08 0  0.3 0.08 0  0.33 0.08 0  0.36 0.08 0  0.39 0.08 0  0.42 0.08 0  0.45 0.08 0  0.48 0.08 0  0.51 0.08 0  0.54 0.08 0  0.57 0.08 0  0.6 0.08 0  0.63 0.08 0  0.66 0.08 0  0.6899999999999999 0.08 0  0.72 0.08 0  0.75 0.08 0  0.78 0.08 0  0.8100000000000001 0.08 0  0.84 0.08 0  0.87 0.08 0  0.9 0.08 0  0.93 0.08 0  0.96 0.08 0  0.99 0.08 0  1.02 0.08 0  1.05 0.08 0  1.08 0.08 0  1.11 0.08 0  1.14 0.08 0  1.17 0.08 0  1.2 0.08 0  1.23 0.08 0  1.26 0.08 0  1.29 0.08 0  1.32 0.08 0  1.35 0.08 0  1.38 0.08 0  1.41 0.08 0  1.44 0.08 0  1.47 0.08 0  1.5 0.08 0  0 0.1 0  0.03 0.1 0  0.06 0.1 0  0.09 0.1 0  0.12 0.1 0  0.15 0.1 0  0.18 0.1 0  0.21 0.1 0  0.24 0.1 0  0.27 0.1 0  0.3 0.1 0  0.33 0.1 0  0.36 0.1 0  0.39 0.1 0  0.42 0.1 0  0.45 0.1 0  0.48 0.1 0  0.51 0.1 0  0.54 0.1 0  0.57 0.1 0  0.6 0.1 0  0.63 0.1 0  0.66 0.1 0  0.6899999999999999 0.1 0  0.72 0.1 0  0.75 0.1 0  0.78 0.1 0  0.8100000000000001 0.1 0  0.84 0.1 0  0.87 0.1 0  0.9 0.1 0  0.93 0.1 0  0.96 0.1 0  0.99 0.1 0  1.02 0.1 0  1.05 0.1 0  1.08 0.1 0  1.11 0.1 0  1.14 0.1 0  1.17 0.1 0  1.2 0.1 0  1.23 0.1 0  1.26 0.1 0  1.29 0.1 0  1.32 0.1 0  1.35 0.1 0  1.38 0.1 0  1.41 0.1 0  1.44 0.1 0  1.47 0.1 0  1.5 0.1 0  0 0.12 0  0.03 0.12 0  0.06 0.12 0  0.09 0.12 0  0.12 0.12 0  0.15 0.12 0  0.18 0.12 0  0.21 0.12 0  0.24 0.12 0  0.27 0.12 0  0.3 0.12 0  0.33 0.12 0  0.36 0.12 0  0.39 0.12 0  0.42 0.12 0  0.45 0.12 0  0.48 0.12 0  0.51 0.12 0  0.54 0.12 0  0.57 0.12 0  0.6 0.12 0  0.63 0.12 0  0.66 0.12 0  0.6899999999999999 0.12 0  0.72 0.12 0  0.75 0.12 0  0.78 0.12 0  0.8100000000000001 0.12 0  0.84 0.12 0  0.87 0.12 0  0.9 0.12 0  0.93 0.12 0  0.96 0.12 0  0.99 0.12 0  1.02 0.12 0  1.05 0.12 0  1.08 0.12 0  1.11 0.12 0  1.14 0.12 0  1.17 0.12 0  1.2 0.12 0  1.23 0.12 0  1.26 0.12 0  1.29 0.12 0  1.32 0.12 0  1.35 0.12 0  1.38 0.12 0  1.41 0.12 0  1.44 0.12 0  1.47 0.12 0  1.5 0.12 0  0 0.14 0  0.03 0.14 0  0.06 0.14 0  0.09 0.14 0  0.12 0.14 0  0.15 0.14 0  0.18 0.14 0  0.21 0.14 0  0.24 0.14 0  0.27 0.14 0  0.3 0.14 0  0.33 0.14 0  0.36 0.14 0  0.39 0.14 0  0.42 0.14 0  0.45 0.14 0  0.48 0.14 0  0.51 0.14 0  0.54 0.14 0  0.57 0.14 0  0.6 0.14 0  0.63 0.14 0  0.66 0.14 0  0.6899999999999999 0.14 0  0.72 0.14 0  0.75 0.14 0  0.78 0.14 0  0.8100000000000001 0.14 0  0.84 0.14 0  0.87 0.14 0  0.9 0.14 0  0.93 0.14 0  0.96 0.14 0  0.99 0.14 0  1.02 0.14 0  1.05 0.14 0  1.08 0.14 0  1.11 0.14 0  1.14 0.14 0  1.17 0.14 0  1.2 0.14 0  1.23 0.14 0  1.26 0.14 0  1.29 0.14 0  1.32 0.14 0  1.35 0.14 0  1.38 0.14 0  1.41 0.14 0  1.44 0.14 0  1.47 0.14 0  1.5 0.14 0  0 0.16 0  0.03 0.16 0  0.06 0.16 0  0.09 0.16 0  0.12 0.16 0  0.15 0.16 0  0.18 0.16 0  0.21 0.16 0  0.24 0.16 0  0.27 0.16 0  0.3 0.16 0  0.33 0.16 0  0.36 0.16 0  0.39 0.16 0  0.42 0.16 0  0.45 0.16 0  0.48 0.16 0  0.51 0.16 0  0.54 0.16 0  0.57 0.16 0  0.6 0.16 0  0.63 0.16 0  0.66 0.16 0  0.6899999999999999 0.16 0  0.72 0.16 0  0.75 0.16 0  0.78 0.16 0  0.8100000000000001 0.16 0  0.84 0.16 0  0.87 0.16 0  0.9 0.16 0  0.93 0.16 0  0.96 0.16 0  0.99 0.16 0  1.02 0.16 0  1.05 0.16 0  1.08 0.16 0  1.11 0.16 0  1.14 0.16 0  1.17 0.16 0  1.2 0.16 0  1.23 0.16 0  1.26 0.16 0  1.29 0.16 0  1.32 0.16 0  1.35 0.16 0  1.38 0.16 0  1.41 0.16 0  1.44 0.16 0  1.47 0.16 0  1.5 0.16 0  0 0.18 0  0.03 0.18 0  0.06 0.18 0  0.09 0.18 0  0.12 0.18 0  0.15 0.18 0  0.18 0.18 0  0.21 0.18 0  0.24 0.18 0  0.27 0.18 0  0.3 0.18 0  0.33 0.18 0  0.36 0.18 0  0.39 0.18 0  0.42 0.18 0  0.45 0.18 0  0.48 0.18 0  0.51 0.18 0  0.54 0.18 0  0.57 0.18 0  0.6 0.18 0  0.63 0.18 0  0.66 0.18 0  0.6899999999999999 0.18 0  0.72 0.18 0  0.75 0.18 0  0.78 0.18 0  0.8100000000000001 0.18 0  0.84 0.18 0  0.87 0.18 0  0.9 0.18 0  0.93 0.18 0  0.96 0.18 0  0.99 0.18 0  1.02 0.18 0  1.05 0.18 0  1.08 0.18 0  1.11 0.18 0  1.14 0.18 0  1.17 0.18 0  1.2 0.18 0  1.23 0.18 0  1.26 0.18 0  1.29 0.18 0  1.32 0.18 0  1.35 0.18 0  1.38 0.18 0  1.41 0.18 0  1.44 0.18 0  1.47 0.18 0  1.5 0.18 0  0 0.2 0  0.03 0.2 0  0.06 0.2 0  0.09 0.2 0  0.12 0.2 0  0.15 0.2 0  0.18 0.2 0  0.21 0.2 0  0.24 0.2 0  0.27 0.2 0  0.3 0.2 0  0.33 0.2 0  0.36 0.2 0  0.39 0.2 0  0.42 0.2 0  0.45 0.2 0  0.48 0.2 0  0.51 0.2 0  0.54 0.2 0  0.57 0.2 0  0.6 0.2 0  0.63 0.2 0  0.66 0.2 0  0.6899999999999999 0.2 0  0.72 0.2 0  0.75 0.2 0  0.78 0.2 0  0.8100000000000001 0.2 0  0.84 0.2 0  0.87 0.2 0  0.9 0.2 0  0.93 0.2 0  0.96 0.2 0  0.99 0.2 0  1.02 0.2 0  1.05 0.2 0  1.08 0.2 0  1.11 0.2 0  1.14 0.2 0  1.17 0.2 0  1.2 0.2 0  1.23 0.2 0  1.26 0.2 0  1.29 0.2 0  1.32 0.2 0  1.35 0.2 0  1.38 0.2 0  1.41 0.2 0  1.44 0.2 0  1.47 0.2 0  1.5 0.2 0  0 0.22 0  0.03 0.22 0  0.06 0.22 0  0.09 0.22 0  0.12 0.22 0  0.15 0.22 0  0.18 0.22 0  0.21 0.22 0  0.24 0.22 0  0.27 0.22 0  0.3 0.22 0  0.33 0.22 0  0.36 0.22 0  0.39 0.22 0  0.42 0.22 0  0.45 0.22 0  0.48 0.22 0  0.51 0.22 0  0.54 0.22 0  0.57 0.22 0  0.6 0.22 0  0.63 0.22 0  0.66 0.22 0  0.6899999999999999 0.22 0  0.72 0.22 0  0.75 0.22 0  0.78 0.22 0  0.8100000000000001 0.22 0  0.84 0.22 0  0.87 0.22 0  0.9 0.22 0  0.93 0.22 0  0.96 0.22 0  0.99 0.22 0  1.02 0.22 0  1.05 0.22 0  1.08 0.22 0  1.11 0.22 0  1.14 0.22 0  1.17 0.22 0  1.2 0.22 0  1.23 0.22 0  1.26 0.22 0  1.29 0.22 0  1.32 0.22 0  1.35 0.22 0  1.38 0.22 0  1.41 0.22 0  1.44 0.22 0  1.47 0.22 0  1.5 0.22 0  0 0.24 0  0.03 0.24 0  0.06 0.24 0  0.09 0.24 0  0.12 0.24 0  0.15 0.24 0  0.18 0.24 0  0.21 0.24 0  0.24 0.24 0  0.27 0.24 0  0.3 0.24 0  0.33 0.24 0  0.36 0.24 0  0.39 0.24 0  0.42 0.24 0  0.45 0.24 0  0.48 0.24 0  0.51 0.24 0  0.54 0.24 0  0.57 0.24 0  0.6 0.24 0  0.63 0.24 0  0.66 0.24 0  0.6899999999999999 0.24 0  0.72 0.24 0  0.75 0.24 0  0.78 0.24 0  0.8100000000000001 0.24 0  0.84 0.24 0  0.87 0.24 0  0.9 0.24 0  0.93 0.24 0  0.96 0.24 0  0.99 0.24 0  1.02 0.24 0  1.05 0.24 0  1.08 0.24 0  1.11 0.24 0  1.14 0.24 0  1.17 0.24 0  1.2 0.24 0  1.23 0.24 0  1.26 0.24 0  1.29 0.24 0  1.32 0.24 0  1.35 0.24 0  1.38 0.24 0  1.41 0.24 0  1.44 0.24 0  1.47 0.24 0  1.5 0.24 0  0 0.26 0  0.03 0.26 0  0.06 0.26 0  0.09 0.26 0  0.12 0.26 0  0.15 0.26 0  0.18 0.26 0  0.21 0.26 0  0.24 0.26 0  0.27 0.26 0  0.3 0.26 0  0.33 0.26 0  0.36 0.26 0  0.39 0.26 0  0.42 0.26 0  0.45 0.26 0  0.48 0.26 0  0.51 0.26 0  0.54 0.26 0  0.57 0.26 0  0.6 0.26 0  0.63 0.26 0  0.66 0.26 0  0.6899999999999999 0.26 0  0.72 0.26 0  0.75 0.26 0  0.78 0.26 0  0.8100000000000001 0.26 0  0.84 0.26 0  0.87 0.26 0  0.9 0.26 0  0.93 0.26 0  0.96 0.26 0  0.99 0.26 0  1.02 0.26 0  1.05 0.26 0  1.08 0.26 0  1.11 0.26 0  1.14 0.26 0  1.17 0.26 0  1.2 0.26 0  1.23 0.26 0  1.26 0.26 0  1.29 0.26 0  1.32 0.26 0  1.35 0.26 0  1.38 0.26 0  1.41 0.26 0  1.44 0.26 0  1.47 0.26 0  1.5 0.26 0  0 0.28 0  0.03 0.28 0  0.06 0.28 0  0.09 0.28 0  0.12 0.28 0  0.15 0.28 0  0.18 0.28 0  0.21 0.28 0  0.24 0.28 0  0.27 0.28 0  0.3 0.28 0  0.33 0.28 0  0.36 0.28 0  0.39 0.28 0  0.42 0.28 0  0.45 0.28 0  0.48 0.28 0  0.51 0.28 0  0.54 0.28 0  0.57 0.28 0  0.6 0.28 0  0.63 0.28 0  0.66 0.28 0  0.6899999999999999 0.28 0  0.72 0.28 0  0.75 0.28 0  0.78 0.28 0  0.8100000000000001 0.28 0  0.84 0.28 0  0.87 0.28 0  0.9 0.28 0  0.93 0.28 0  0.96 0.28 0  0.99 0.28 0  1.02 0.28
[...]
<PointData  Scalars="ControlVisualisation"> 
<DataArray  type="Float64"  Name="ControlVisualisation"  format="ascii">1.0299920616446306e-01  7.0977758740761510e-02  7.1062748239597337e-02  7.1243856999730654e-02  7.1521786630137182e-02  7.1856347226966863e-02  7.2193823995630166e-02  7.2495758046865311e-02  7.2747025233103266e-02  7.2948799104915571e-02  7.3107160061291435e-02  7.3226099745699227e-02  7.3308375562528158e-02  7.3359466039465471e-02  7.3387881042811895e-02  7.3400666702682804e-02  7.3399418647126347e-02  7.3382764321284766e-02  7.3352706624609201e-02  7.3316240744370015e-02  7.3281112428264128e-02  7.3252107477752376e-02  7.3230833806995091e-02  7.3217069912275404e-02  7.3209891722339562e-02  7.3208346022548526e-02  7.3211777415284077e-02  7.3219769694390716e-02  7.3231838126911128e-02  7.3247258059847997e-02  7.3265208464667844e-02  7.3284887973972868e-02  7.3305255521989771e-02  7.3324599667521709e-02  7.3340118240710642e-02  7.3347152746595271e-02  7.3338252875631255e-02  7.3303705227575788e-02  7.3234737927226679e-02  7.3127100119508598e-02  7.2980742671887228e-02  7.2795240203402750e-02  7.2566386220614010e-02  7.2289930992858187e-02  7.1971725076556123e-02  7.1638039323876412e-02  7.1336940274918756e-02  7.1118474199258430e-02  7.1000961174810584e-02  7.0958860124888154e-02  1.8671731163949981e-01  7.0967321704732605e-02  3.6725222303597600e-02  3.6922623157099432e-02  3.7373043095024441e-02  3.8110218508292153e-02  3.9050058285802540e-02  4.0045904776066545e-02  4.0970114521153678e-02  4.1754693488713406e-02  4.2388653095593878e-02  4.2890519865726201e-02  4.3279941694615222e-02  4.3570287947118744e-02  4.3777901057204076e-02  4.3924989130148195e-02  4.4026829505400350e-02  4.4077915504478628e-02  4.4060882802647826e-02  4.3973729280169079e-02  4.3840234423453771e-02  4.3693539979607683e-02  4.3558790993953551e-02  4.3449689364800807e-02  4.3371968414057084e-02  4.3326629164325600e-02  4.3312300418504972e-02  4.3326933881707080e-02  4.3367930545535179e-02  4.3430786175488373e-02  4.3508236403090102e-02  4.3591506963589814e-02  4.3672310803557511e-02  4.3743118669948122e-02  4.3796305200843481e-02  4.3824117996681976e-02  4.3818038424311673e-02  4.3765469200803743e-02  4.3647082621475583e-02  4.3440947543130062e-02  4.3131640247949105e-02  4.2713022446232506e-02  4.2179893363556667e-02  4.1520067879060166e-02  4.0722318804438502e-02  3.9800945046978689e-02  3.8824812655184580e-02  3.7924951141195672e-02  3.7247394169135667e-02  3.6860330829880758e-02  3.6703355543100474e-02  7.0957341943068145e-02  7.0998819393273696e-02  3.6807941060693877e-02  3.7188349011644493e-02  3.8048122300019492e-02  3.9466434619501091e-02  4.1275139707976014e-02  4.3185708622009669e-02  4.4947792518678670e-02  4.6427107220278950e-02  4.7606554143849941e-02  4.8534977440945287e-02  4.9261350389093045e-02  4.9813825423622018e-02  5.0224242242539768e-02  5.0538614027456699e-02  5.0787191854160967e-02  5.0942060468165976e-02  5.0936337290129266e-02  5.0750014547036967e-02  5.0443829141777891e-02  5.0103454676151793e-02  4.9788594124849476e-02  4.9530019731172950e-02  4.9342066039208231e-02  4.9229227751207437e-02  4.9190033535147684e-02  4.9220855992830707e-02  4.9316442103931650e-02  4.9466214195930364e-02  4.9651551439244379e-02  4.9849363611648469e-02  5.0038529030026417e-02  5.0200891117865742e-02  5.0318462910711702e-02  5.0374823650794515e-02  5.0357302773183628e-02  5.0251077804710831e-02  5.0029574657800384e-02  4.9656528697882445e-02  4.9101921081926861e-02  4.8350167585844338e-02  4.7388472110245751e-02  4.6192378329325476e-02  4.4732599098042947e-02  4.3014011771997235e-02  4.1139962363651139e-02  3.9350495231705834e-02  3.7955976552443059e-02  3.7133895703886720e-02  3.6781690442996742e-02  7.0977032579865817e-02  7.1041034757036534e-02  3.6943815244754714e-02  3.7609289859926349e-02  3.8995675778618427e-02  4.1101754989968917e-02  4.3544702989490508e-02  4.5893102359142172e-02  4.7883240677137034e-02  4.9434988904291079e-02  5.0603579008013704e-02  5.1499616273134478e-02  5.2195943838215041e-02  5.2716871056963210e-02  5.3098128823722605e-02  5.3408123773331692e-02  5.3703629907673731e-02  5.3927431334077770e-02  5.3917460613579965e-02  5.3615608852602609e-02  5.3145670150483625e-02  5.2658207977359102e-02  5.2229147124693245e-02  5.1885041926334585e-02  5.1637973437263333e-02  5.1491536349378031e-02  5.1442262208526005e-02  5.1485467326070122e-02  5.1616491874314580e-02  5.1823230667797301e-02  5.2079661070188375e-02  5.2352374454992946e-02  5.2614258923438163e-02  5.2845430900380137e-02  5.3024543455970866e-02  5.3132176175568348e-02  5.3159134990952733e-02  5.3097753751692789e-02  5.2923174032082236e-02  5.2593374109952885e-02  5.2076365425355063e-02  5.1360164304589478e-02  5.0423692728202088e-02  4.9217123169753629e-02  4.7676645748210275e-02  4.5753824027335535e-02  4.3465365605653380e-02  4.1011701669835345e-02  3.8873426598753633e-02  3.7503994345003892e-02  3.6891419811925508e-02  7.1012865747395071e-02  7.1069218973063536e-02  3.7187293617875157e-02  3.8642397108454581e-02  4.1330733407009913e-02  4.4688053883725466e-02  4.7833381946399259e-02  5.0305537547087310e-02  5.1983242181755235e-02  5.2970326846298821e-02  5.3550191322324213e-02  5.3998293860199047e-02  5.4392378546160643e-02  5.4676757651007463e-02  5.4847999274470725e-02  5.5003705147177326e-02  5.5279847630949695e-02  5.5605076519619878e-02  5.5600247272378472e-02  5.5116953943565118e-02  5.4430475507893920e-02  5.3801882664094920e-02  5.3294103878748340e-02  5.2900518960385723e-02  5.2622882606498181e-02  5.2462286271340391e-02  5.2411221700448277e-02  5.2463579342205975e-02  5.2618295738632755e-02  5.2865650256271976e-02  5.3173093612037009e-02  5.3496208673323865e-02  5.3807147420883716e-02  5.4096170141452279e-02  5.4347454674373796e-02  5.4543425615109324e-02  5.4684529758580971e-02  5.4774608239457540e-02  5.4787993309993524e-02  5.4666788326517043e-02  5.4382712209447445e-02  5.3983447730873602e-02  5.3516775025614929e-02  5.2893041891134480e-02  5.1890945199539490e-02  5.0272799908499144e-02  4.7875940768474332e-02  4.4724173858557245e-02  4.1230070260662902e-02  3.8416197891784111e-02  3.7058822307080644e-02  7.1044748055548113e-02  7.1090268742534726e-02  3.7861598145308206e-02  4.1788765295461799e-02  4.8002767931431538e-02  5.4465307538448117e-02  5.8876420802176720e-02  6.0922552048366628e-02  6.1107056039905946e-02  5.9928106037995546e-02  5.8352480198812812e-02  5.7326637209098141e-02  5.6898675872414171e-02  5.6611878837246624e-02  5.6271829839831526e-02  5.5979655354170002e-02  5.6022396664504162e-02  5.6471361116423938e-02  5.6466330476119986e-02  5.5643893022063434e-02  5.4645597386343676e-02  5.3897688415619933e-02  5.3361815825715947e-02  5.2954938444527901e-02  5.2670781567796733e-02  5.2512031539547394e-02  5.2464459664523094e-02  5.2519804266749362e-02  5.2686848837253608e-02  5.2967933123635409e-02  5.3329162154648918e-02  5.3715896195192687e-02  5.4106802918260408e-02  5.4519908984471711e-02  5.4951967502753468e-02  5.5384208395726164e-02  5.5828957566351048e-02  5.6299578213954697e-02  5.6775631953491737e-02  5.7219409141585201e-02  5.7651979661185848e-02  5.8233627605174157e-02  5.9221665633155937e-02  6.0641529974827399e-02  6.1931350970410352e-02  6.2121702451039110e-02  5.9949447224659717e-02  5.4925871992019329e-02  4.8241150006784458e-02  4.1411249107682596e-02  3.7444275612163021e-02  7.1047988341540122e-02  7.1427735537116233e-02  4.1484549753258229e-02  5.4668263747250471e-02  6.5942541700668184e-02  8.0519774550769821e-02  8.7366128243138400e-02  8.6992743674814507e-02  8.2459258703829433e-02  7.6207150162765608e-02  6.9674363087486368e-02  6.4564404475318499e-02  6.1753782586664169e-02  6.0303441638252443e-02  5.9252261890647862e-02  5.8286602910947449e-02  5.7533210933800934e-02  5.7825844171517281e-02  5.7527139054641657e-02  5.5814735266319693e-02  5.4151020397665353e-02  5.3177836149733912e-02  5.2564134099031212e-02  5.2101357045584176e-02  5.1793496942740921e-02  5.1645476817152994e-02  5.1623620124943634e-02  5.1713877344900891e-02  5.1948402435091703e-02  5.2365002934559132e-02  5.2945230876926548e-02  5.3629592888292159e-02  5.4405211654207961e-02  5.5323344537745324e-02  5.6354389547678324e-02  5.7394209075279756e-02  5.8397787075194822e-02  5.9376096707449366e-02  6.0369380922013979e-02  6.1511003980574450e-02  6.3139483992106699e-02  6.5816349414692846e-02  7.0212596499656388e-02  7.6390381481122718e-02  8.3133734701888479e-02  8.8707890166206116e-02  9.1174592813099475e-02  8.7029279881495433e-02  7.3148057234501879e-02  5.4910112566615835e-02  3.9738944176434553e-02  7.1053274287822474e-02  7.3747651354593588e-02  5.7717726415517763e-02  1.0471174569127814e-01  1.4535552094709225e-01  1.3570442281870349e-01  1.3109504106022674e-01  1.1611393283902575e-01  1.0137912028387061e-01  8.7798644573557433e-02  7.7411028692590811e-02  6.9374842622448432e-02  6.4229166327475870e-02  6.2045495343993902e-02  6.1650915591724677e-02  6.1066004260472942e-02  6.0097580139872722e-02  6.0775997360187524e-02  6.0492164574726344e-02  5.8028030698553487e-02  5.5792720473171416e-02  5.4504319803023255e-02  5.3543439299613714e-02  5.2749009814215327e-02  5.2234467902066782e-02  5.2025546131237832e-02  5.2049281636502465e-02  5.2265806637354160e-02  5.2716695188574518e-02  5.3455616454406926e-02  5.4434401251144467e-02  5.5515639776417131e-02  5.6610764358633180e-02  5.7785913613015168e-02  5.9070332589279136e-02  6.0416124516617563e-02  6.1767582645181104e-02  6.2797553566076456e-02  6.3321027697261209e-02  6.3911793728988905e-02  6.5345666917274642e-02  6.7954571145659948e-02  7.3170745274683480e-02  8.5907722754196475e-02  1.0543592179277775e-01  1.2584305109135857e-01  1.4410747232659496e-01  1.5464372804155968e-01  1.4783433582929192e-01  1.1606444631264105e-01  5.2854119929465281e-02  7.1540752239905914e-02  9.9712551416275941e-02  1.0886904251126980e-01  2.7390365721714394e-01  2.8909402011412916e-01  2.7397126342326156e-01  2.3707400852073543e-01  1.7807990918326716e-01  1.4106044873402268e-01  1.1419706898486594e-01  9.5420935172824906e-02  8.6198776846587000e-02  7.8169534949088654e-02  6.8508970578582323e-02  5.8816410991936803e-02  5.2615362221263354e-02  5.0200916386103182e-02  6.7527230066771943e-02  6.6981213192582878e-02  5.8486851428269322e-02  5.8409714421636866e-02  5.7790928327962336e-02  5.6882575520302431e-02  5.5995251870830237e-02  5.5393522796312343e-02  5.5111001636435203e-02  5.5073838839913340e-02  5.5240403296449914e-02  5.5634505617572549e-02  5.6312629171336906e-02  5.7264416988332935e-02  5.8358125310126262e-02  5.9402171253600679e-02  6.0563167452695285e-02  6.1109101505922157e-02  5.9597723058690218e-02  5.7515495856177414e-02  5.8905580911831783e-02  6.4646444783689069e-02  7.3066436538931342e-02  8.2614886222629053e-02  9.1690040438226567e-02  1.0184048414483121e-01  1.2277913101630385e-01  1.5522781211779524e-01  1.9507121074397551e-01  2.3599094067208543e-01  2.5768267355877406e-01  2.5231810763585599e-01  2.4010915709955374e-01  1.3984657661829722e-01  8.6280830860321928e-02  4.5055040074075314e-01  4.3720226721464311e-01  5.1041704376187724e-01  4.6732382932383471e-01  4.3997307552430531e-01  4.0087112725354823e-01  3.3697675873487032e-01  2.6449114913627725e-01  2.0113506773378209e-01  1.5521964381730766e-01  1.2801603775002585e-01  1.0872348758579270e-01  9.1980748798856399e-02  7.9182288046670685e-02  6.8706146859815548e-02  5.5340807133490530e-02  6.4019899690499496e-02  1.3408531339170005e-01  4.9075631114178356e-02  4.7477683956703758e-02  5.4387981685926651e-02  5.6124319695910613e-02  5.6182222697500207e-02  5.6188786938981189e-02  5.6196072094186623e-02  5.6113551713023534e-02  5.5981993837083174e-02  5.5939610065030766e-02  5.6118341899669036e-02  5.6108903416638434e-02  5.5042002609422574e-02  5.2669542371221706e-02  5.0569105627772053e-02  5.2701872555029658e-02  5.7693541079980079e-02  6.5070160395025056e-02  7.4124678356397716e-02  8.5536694641254324e-02  9.9786689001753123e-02  1.1676848365181755e-01  1.3720050871546652e-01  1.6493661903682655e-01  2.0602143994359295e-01  2.6400246031625058e-01  3.3128768650520579e-01  3.9390045990806699e-01  4.4204977430226444e-01  4.7777799085786860e-01  4.9308738912240041e-01  5.0879339322827177e-01  3.6064696192858375e-01  8.4632710338153694e-01  8.4801915068446077e-01  7.6364338225353490e-01  6.7045604668875813e-01  5.8756565697346763e-01  5.0749592180098957e-01  4.3222159090740353e-01  3.5623426048598184e-01  2.8274570640000629e-01  2.2233509359111889e-01  1.8145520044192237e-01  1.5272969332604699e-01  1.2639006679146741e-01  1.0304885969862040e-01  8.5220938957029618e-02  7.2508408081939785e-02  6.4889000230932248e-02  7.6359299586286650e-02  6.8329174609480611e-02  4.7914283519935666e-02  5.0824831267664107e-02  5.0809417442734976e-02  4.7546045324979434e-02  4.7723966032985558e-02  4.9057509767989775e-02  4.9668924891975795e-02  4.9491978007633344e-02  4.8838821333633139e-02  4.9155874320786448e-02  5.1529675447110443e-02  5.4007540045655077e-02  5.7013516266089387e-02  6.0608623022677124e-02  6.5574229554836341e-02  7.2520648729336695e-02  8.1473446486044335e-02  9.4249773062018677e-02  1.1199209167721952e-01  1.3358984720560491e-01  1.5728082647589400e-01  1.8681360919041051e-01  2.3042526840756575e-01  2.9011224582043471e-01  3.5945905231829905e-01  4.3150298284913996e-01  5.0689344787274526e-01  5.8812115058777292e-01  6.7877510919472961e-01  7.7263631704649716e-01  8.5777042813032600e-01  8.1731162290350745e-01  9.2584039414064734e-01  9.4085540373354226e-01  8.9043529876288574e-01  8.1049013813521587e-01  7.1891398540151819e-01  6.2673952335454886e-01  5.4248988104278073e-01  4.5864950192733878e-01  3.7584450006282999e-01  3.0201121791586827e-01  2.4399690183485703e-01  2.0347277797016175e-01  1.7220567507585319e-01  1.4275125772485892e-01  1.1589663652884416e-01  9.5999671118870339e-02  8.4329351397641153e-02  7.5765767513703799e-02  6.6642638658909292e-02  6.2162040213089090e-02  6.2386168797549643e-02  6.1710522746034994e-02  6.0045719510017678e-02  5.8751659102575772e-02  5.8594962480464058e-02  5.8903406843157077e-02  5.9240829031418869e-02  5.9735531716425608e-02  6.0813541352733702e-02  6.2943268542473368e-02  6.5886569780401499e-02  6.9030540070811774e-02  7.2533516284676205e-02  7.7872920711389029e-02  8.7315727751593950e-02  1.0190822922245776e-01  1.2126174552140570e-01  1.4478535608402143e-01  1.7231152463328248e-01  2.0626984039282270e-01  2.5257841618572069e-01  3.1481778165031749e-01  3.8967465574035781e-01  4.6917075721707185e-01  5.4895947270508227e-01  6.3369063209692666e-01  7.2592282695924015e-01  8.1729103207247855e-01  8.9771928954888514e-01  9.4370325239048281e-01  9.1438604173132687e-01  9.4450900552294714e-01  9.6157546628051649e-01  9.3359305797894232e-01  8.8000473970874582e-01  8.0569487247334737e-01  7.2367334147465978e-01  6.4170209237529130e-01  5.6293117447528385e-01  4.8218278156630157e-01  4.0269703538542889e-01  3.3062301595962901e-01  2.7147762651835888e-01  2.2676931735398254e-01  1.9182877216965291e-01  1.6162844901387508e-01  1.3561052796129133e-01  1.1534992845429977e-01  9.9238154820518842e-02  8.5562239680699037e-02  7.7263315729579465e-02  7.3712645859417225e-02  7.0828420508447620e-02  6.8635548138963734e-02  6.7588942401997129e-02  6.7451295286282409e-02  6.7679708630491150e-02  6.8105983178106178e-02  6.8918961111452778e-02  7.0482220369543311e-02  7.3176825843652413e-02  7.7230580958853157e-02  8.2684449519048200e-02  8.9830669555779299e-02  9.9772179503266376e-02  1.1398354723221513e-01  1.3336227967615091e-01  1.5844584418619220e-01  1.9006691347573232e-01  2.2968879302849876e-01  2.7970884012606861e-01  3.4201253653512148e-01  4.1505882087031665e-01  4.9376834243658918e-01  5.7221335256410222e-01  6.5011077957121843e-01  7.3113715502816767e-01  8.1105943132769709e-01  8.8358682963115631e-01  9.3505642556129187e-01  9.6188104185710643e-01  9.4179666449499821e-01  9.4218723965758633e-01  9.6323856246724260e-01  9.4097400470127557e-01  9.0078467298888054e-01  8.4494892112233877e-01  7.8037691261736619e-01  7.1059495985492216e-01  6.4054764800070918e-01  5.6842769569809870e-01  4.9416161289567118e-01  4.2168015262590886e-01  3.5504672745384408e-01  2.9791717897707481e-01  2.5156268729554709e-01  2.1469401485979550e-01  1.8503571658941120e-01  1.6018885833307528e-01  1.3826654643200509e-01  1.1955012826505218e-01  1.0620320486290917e-01  9.7733360611654205e-02  9.1625815117098261e-02  8.7434062646555288e-02  8.5289835429778305e-02  8.4671819754435038e-02  8.4853602966718414e-02  8.5615726997386274e-02  8.7279284768317006e-02  9.0394886841877214e-02  9.5379149405096730e-02  1.0228543998810317e-01  1.1100382253161641e-01  1.2190133627084780e-01  1.3622491111110452e-01  1.5564250225308984e-01  1.8163558527739199e-01  2.1537677217425374e-01  2.5743808194417839e-01  3.0784602071790285e-01  3.6670393207665314e-01  4.3349872802863665e-01  5.0574936406737747e-01  5.7939827931583343e-01  6.5022112485367534e-01  7.1770424276719447e-01  7.8393311774862418e-01  8.4553446143475253e-01  9.0001033716070855e-01  9.3987122919725163e-01  9.6261228750273053e-01  9.4464898142347109e-01  9.1540251048259824e-01  9.4952022312886630e-01  9.2563773089190726e-01  8.9066160960563368e-01  8.4959848287081929e-01  8.0246104709847321e-01  7.5017338400368994e-01  6.9469471848653519e-01  6.3449411268085731e-01  5.6985955573771996e-01  5.0404847893038518e-01  4.4016805102310508e-01  3.8087007176795051e-01  3.2810697124020816e-01  2.8306092040312614e-01  2.4618085841310319e-01  2.1638598669189368e-01  1.9152495982580967e-01  1.7074568857905412e-01  1.5478211385972046e-01  1.4317023029666245e-01  1.3426319045349502e-01  1.2766164753584633e-01  1.2371379009167696e-01  1.2211025021230196e-01  1.2209419723782731e-01  1.2326589696065769e-01  1.2583635359641504e-01  1.3033077525972955e-01  1.3715323438609803e-01  1.4636246122672983e-01  1.5793183383713444e-01  1.7242315898624855e-01  1.9135975217108345e-01  2.1669452359762173e-01  2.4982667539866979e-01  2.9095255455398328e-01  3.3910337480657843e-01  3.9299635008688888e-01  4.5188524032824900e-01  5.1489759178476835e-01  5.7980823048197472e-01  6.4331088048474849e-01  7.0182540682255889e-01  7.5378493560766657e-01  8.0144308614466675e-01  8.4569822326546173e-01  8.8624295401350472e-01  9.2175908630569059e-01  9.4724129043265404e-01  9.2684441354329772e-01  8.1656237896853878e-01  8.8736571136229825e-01  8.6820937110039387e-01  8.4808714408267116e-01  8.2271293211978724e-01  7.9536315495462717e-01  7.6368265993143225e-01  7.2535261274650409e-01  6.7928883532548079e-01  6.2706339292747371e-01  5.7170382499815098e-01  5.1588293872377777e-01  4.6173911721503014e-01  4.1086112360867100e-01  3.6455072744047251e-01  3.2400222104692844e-01  2.8970237991155756e-01  2.6120777182771587e-01  2.3814300238273806e-01  2.2065382944258904e-01  2.0825973949372784e-01  1.9953790881741246e-01  1.9342394890059289e-01  1.8961460485115159e-01  1.8781067853542516e-01  1.8747693971728976e-01  1.8828744918181348e-01  1.9047207378031150e-01  1.9468933996802418e-01  2.0166879567030085e-01  2.1195760977720485e-01  2.2595911287262793e-01  2.4421947647129680e-01  2.6761895803960417e-01  2.9714720105392411e-01  3.3334651185496472e-01  3.7581095055974728e-01  4.2317746872130274e-01  4.7379901095900007e-01  5.2649095088376308e-01  5.8012655744376473e-01  6.3293498428959527e-01  6.8281534402876398e-01  7.2726855388707046e-01  7.6361376431765182e-01  7.9363778435419452e-01  8.2251435569383824e-01  8.4386074255706678e-01  8.6266978843075592e-01  8.8188281983668160e-01  8.4976018142308340e-01  3.6783036920189505e-01  6.4161784999987592e-01  7.3399559620700550e-01  7.7160087366904162e-01  7.7070075315712150e-01  7.6212779945433518e-01  7.4929324198073133e-01  7.2886602213615181e-01  6.9851178004014114e-01  6.6048311945645100e-01  6.1857936647941292e-01  5.7513480114782178e-01  5.314800710