<?xml version="1.0"?>
<VTKFile type="UnstructuredGrid"  version="0.1"  >
<UnstructuredGrid>
<Piece  NumberOfPoints="2601" NumberOfCells="5000">
<Points>
<DataArray  type="Float64"  NumberOfComponents="3"  format="ascii">0 0 0  0.03 0 0  0.06 0 0  0.09 0 0  0.12 0 0  0.15 0 0  0.18 0 0  0.21 0 0  0.24 0 0  0.27 0 0  0.3 0 0  0.33 0 0  0.36 0 0  0.39 0 0  0.42 0 0  0.45 0 0  0.48 0 0  0.51 0 0  0.54 0 0  0.57 0 0  0.6 0 0  0.63 0 0  0.66 0 0  0.6899999999999999 0 0  0.72 0 0  0.75 0 0  0.78 0 0  0.8100000000000001 0 0  0.84 0 0  0.87 0 0  0.9 0 0  0.93 0 0  0.96 0 0  0.99 0 0  1.02 0 0  1.05 0 0  1.08 0 0  1.11 0 0  1.14 0 0  1.17 0 0  1.2 0 0  1.23 0 0  1.26 0 0  1.29 0 0  1.32 0 0  1.35 0 0  1.38 0 0  1.41 0 0  1.44 0 0  1.47 0 0  1.5 0 0  0 0.02 0  0.03 0.02 0  0.06 0.02 0  0.09 0.02 0  0.12 0.02 0  0.15 0.02 0  0.18 0.02 0  0.21 0.02 0  0.24 0.02 0  0.27 0.02 0  0.3 0.02 0  0.33 0.02 0  0.36 0.02 0  0.39 0.02 0  0.42 0.02 0  0.45 0.02 0  0.48 0.02 0  0.51 0.02 0  0.54 0.02 0  0.57 0.02 0  0.6 0.02 0  0.63 0.02 0  0.66 0.02 0  0.6899999999999999 0.02 0  0.72 0.02 0  0.75 0.02 0  0.78 0.02 0  0.8100000000000001 0.02 0  0.84 0.02 0  0.87 0.02 0  0.9 0.02 0  0.93 0.02 0  0.96 0.02 0  0.99 0.02 0  1.02 0.02 0  1.05 0.02 0  1.08 0.02 0  1.11 0.02 0  1.14 0.02 0  1.17 0.02 0  1.2 0.02 0  1.23 0.02 0  1.26 0.02 0  1.29 0.02 0  1.32 0.02 0  1.35 0.02 0  1.38 0.02 0  1.41 0.02 0  1.44 0.02 0  1.47 0.02 0  1.5 0.02 0  0 0.04 0  0.03 0.04 0  0.06 0.04 0  0.09 0.04 0  0.12 0.04 0  0.15 0.04 0  0.18 0.04 0  0.21 0.04 0  0.24 0.04 0  0.27 0.04 0  0.3 0.04 0  0.33 0.04 0  0.36 0.04 0  0.39 0.04 0  0.42 0.04 0  0.45 0.04 0  0.48 0.04 0  0.51 0.04 0  0.54 0.04 0  0.57 0.04 0  0.6 0.04 0  0.63 0.04 0  0.66 0.04 0  0.6899999999999999 0.04 0  0.72 0.04 0  0.75 0.04 0  0.78 0.04 0  0.8100000000000001 0.04 0  0.84 0.04 0  0.87 0.04 0  0.9 0.04 0  0.93 0.04 0  0.96 0.04 0  0.99 0.04 0  1.02 0.04 0  1.05 0.04 0  1.08 0.04 0  1.11 0.04 0  1.14 0.04 0  1.17 0.04 0  1.2 0.04 0  1.23 0.04 0  1.26 0.04 0  1.29 0.04 0  1.32 0.04 0  1.35 0.04 0  1.38 0.04 0  1.41 0.04 0  1.44 0.04 0  1.47 0.04 0  1.5 0.04 0  0 0.06 0  0.03 0.06 0  0.06 0.06 0  0.09 0.06 0  0.12 0.06 0  0.15 0.06 0  0.18 0.06 0  0.21 0.06 0  0.24 0.06 0  0.27 0.06 0  0.3 0.06 0  0.33 0.06 0  0.36 0.06 0  0.39 0.06 0  0.42 0.06 0  0.45 0.06 0  0.48 0.06 0  0.51 0.06 0  0.54 0.06 0  0.57 0.06 0  0.6 0.06 0  0.63 0.06 0  0.66 0.06 0  0.6899999999999999 0.06 0  0.72 0.06 0  0.75 0.06 0  0.78 0.06 0  0.8100000000000001 0.06 0  0.84 0.06 0  0.87 0.06 0  0.9 0.06 0  0.93 0.06 0  0.96 0.06 0  0.99 0.06 0  1.02 0.06 0  1.05 0.06 0  1.08 0.06 0  1.11 0.06 0  1.14 0.06 0  1.17 0.06 0  1.2 0.06 0  1.23 0.06 0  1.26 0.06 0  1.29 0.06 0  1.32 0.06 0  1.35 0.06 0  1.38 0.06 0  1.41 0.06 0  1.44 0.06 0  1.47 0.06 0  1.5 0.06 0  0 0.08 0  0.03 0.08 0  0.06 0.08 0  0.09 0.08 0  0.12 0.08 0  0.15 0.08 0  0.18 0.08 0  0.21 0.08 0  0.24 0.08 0  0.27 0.08 0  0.3 0.08 0  0.33 0.08 0  0.36 0.08 0  0.39 0.08 0  0.42 0.08 0  0.45 0.08 0  0.48 0.08 0  0.51 0.08 0  0.54 0.08 0  0.57 0.08 0  0.6 0.08 0  0.63 0.08 0  0.66 0.08 0  0.6899999999999999 0.08 0  0.72 0.08 0  0.75 0.08 0  0.78 0.08 0  0.8100000000000001 0.08 0  0.84 0.08 0  0.87 0.08 0  0.9 0.08 0  0.93 0.08 0  0.96 0.08 0  0.99 0.08 0  1.02 0.08 0  1.05 0.08 0  1.08 0.08 0  1.11 0.08 0  1.14 0.08 0  1.17 0.08 0  1.2 0.08 0  1.23 0.08 0  1.26 0.08 0  1.29 0.08 0  1.32 0.08 0  1.35 0.08 0  1.38 0.08 0  1.41 0.08 0  1.44 0.08 0  1.47 0.08 0  1.5 0.08 0  0 0.1 0  0.03 0.1 0  0.06 0.1 0  0.09 0.1 0  0.12 0.1 0  0.15 0.1 0  0.18 0.1 0  0.21 0.1 0  0.24 0.1 0  0.27 0.1 0  0.3 0.1 0  0.33 0.1 0  0.36 0.1 0  0.39 0.1 0  0.42 0.1 0  0.45 0.1 0  0.48 0.1 0  0.51 0.1 0  0.54 0.1 0  0.57 0.1 0  0.6 0.1 0  0.63 0.1 0  0.66 0.1 0  0.6899999999999999 0.1 0  0.72 0.1 0  0.75 0.1 0  0.78 0.1 0  0.8100000000000001 0.1 0  0.84 0.1 0  0.87 0.1 0  0.9 0.1 0  0.93 0.1 0  0.96 0.1 0  0.99 0.1 0  1.02 0.1 0  1.05 0.1 0  1.08 0.1 0  1.11 0.1 0  1.14 0.1 0  1.17 0.1 0  1.2 0.1 0  1.23 0.1 0  1.26 0.1 0  1.29 0.1 0  1.32 0.1 0  1.35 0.1 0  1.38 0.1 0  1.41 0.1 0  1.44 0.1 0  1.47 0.1 0  1.5 0.1 0  0 0.12 0  0.03 0.12 0  0.06 0.12 0  0.09 0.12 0  0.12 0.12 0  0.15 0.12 0  0.18 0.12 0  0.21 0.12 0  0.24 0.12 0  0.27 0.12 0  0.3 0.12 0  0.33 0.12 0  0.36 0.12 0  0.39 0.12 0  0.42 0.12 0  0.45 0.12 0  0.48 0.12 0  0.51 0.12 0  0.54 0.12 0  0.57 0.12 0  0.6 0.12 0  0.63 0.12 0  0.66 0.12 0  0.6899999999999999 0.12 0  0.72 0.12 0  0.75 0.12 0  0.78 0.12 0  0.8100000000000001 0.12 0  0.84 0.12 0  0.87 0.12 0  0.9 0.12 0  0.93 0.12 0  0.96 0.12 0  0.99 0.12 0  1.02 0.12 0  1.05 0.12 0  1.08 0.12 0  1.11 0.12 0  1.14 0.12 0  1.17 0.12 0  1.2 0.12 0  1.23 0.12 0  1.26 0.12 0  1.29 0.12 0  1.32 0.12 0  1.35 0.12 0  1.38 0.12 0  1.41 0.12 0  1.44 0.12 0  1.47 0.12 0  1.5 0.12 0  0 0.14 0  0.03 0.14 0  0.06 0.14 0  0.09 0.14 0  0.12 0.14 0  0.15 0.14 0  0.18 0.14 0  0.21 0.14 0  0.24 0.14 0  0.27 0.14 0  0.3 0.14 0  0.33 0.14 0  0.36 0.14 0  0.39 0.14 0  0.42 0.14 0  0.45 0.14 0  0.48 0.14 0  0.51 0.14 0  0.54 0.14 0  0.57 0.14 0  0.6 0.14 0  0.63 0.14 0  0.66 0.14 0  0.6899999999999999 0.14 0  0.72 0.14 0  0.75 0.14 0  0.78 0.14 0  0.8100000000000001 0.14 0  0.84 0.14 0  0.87 0.14 0  0.9 0.14 0  0.93 0.14 0  0.96 0.14 0  0.99 0.14 0  1.02 0.14 0  1.05 0.14 0  1.08 0.14 0  1.11 0.14 0  1.14 0.14 0  1.17 0.14 0  1.2 0.14 0  1.23 0.14 0  1.26 0.14 0  1.29 0.14 0  1.32 0.14 0  1.35 0.14 0  1.38 0.14 0  1.41 0.14 0  1.44 0.14 0  1.47 0.14 0  1.5 0.14 0  0 0.16 0  0.03 0.16 0  0.06 0.16 0  0.09 0.16 0  0.12 0.16 0  0.15 0.16 0  0.18 0.16 0  0.21 0.16 0  0.24 0.16 0  0.27 0.16 0  0.3 0.16 0  0.33 0.16 0  0.36 0.16 0  0.39 0.16 0  0.42 0.16 0  0.45 0.16 0  0.48 0.16 0  0.51 0.16 0  0.54 0.16 0  0.57 0.16 0  0.6 0.16 0  0.63 0.16 0  0.66 0.16 0  0.6899999999999999 0.16 0  0.72 0.16 0  0.75 0.16 0  0.78 0.16 0  0.8100000000000001 0.16 0  0.84 0.16 0  0.87 0.16 0  0.9 0.16 0  0.93 0.16 0  0.96 0.16 0  0.99 0.16 0  1.02 0.16 0  1.05 0.16 0  1.08 0.16 0  1.11 0.16 0  1.14 0.16 0  1.17 0.16 0  1.2 0.16 0  1.23 0.16 0  1.26 0.16 0  1.29 0.16 0  1.32 0.16 0  1.35 0.16 0  1.38 0.16 0  1.41 0.16 0  1.44 0.16 0  1.47 0.16 0  1.5 0.16 0  0 0.18 0  0.03 0.18 0  0.06 0.18 0  0.09 0.18 0  0.12 0.18 0  0.15 0.18 0  0.18 0.18 0  0.21 0.18 0  0.24 0.18 0  0.27 0.18 0  0.3 0.18 0  0.33 0.18 0  0.36 0.18 0  0.39 0.18 0  0.42 0.18 0  0.45 0.18 0  0.48 0.18 0  0.51 0.18 0  0.54 0.18 0  0.57 0.18 0  0.6 0.18 0  0.63 0.18 0  0.66 0.18 0  0.6899999999999999 0.18 0  0.72 0.18 0  0.75 0.18 0  0.78 0.18 0  0.8100000000000001 0.18 0  0.84 0.18 0  0.87 0.18 0  0.9 0.18 0  0.93 0.18 0  0.96 0.18 0  0.99 0.18 0  1.02 0.18 0  1.05 0.18 0  1.08 0.18 0  1.11 0.18 0  1.14 0.18 0  1.17 0.18 0  1.2 0.18 0  1.23 0.18 0  1.26 0.18 0  1.29 0.18 0  1.32 0.18 0  1.35 0.18 0  1.38 0.18 0  1.41 0.18 0  1.44 0.18 0  1.47 0.18 0  1.5 0.18 0  0 0.2 0  0.03 0.2 0  0.06 0.2 0  0.09 0.2 0  0.12 0.2 0  0.15 0.2 0  0.18 0.2 0  0.21 0.2 0  0.24 0.2 0  0.27 0.2 0  0.3 0.2 0  0.33 0.2 0  0.36 0.2 0  0.39 0.2 0  0.42 0.2 0  0.45 0.2 0  0.48 0.2 0  0.51 0.2 0  0.54 0.2 0  0.57 0.2 0  0.6 0.2 0  0.63 0.2 0  0.66 0.2 0  0.6899999999999999 0.2 0  0.72 0.2 0  0.75 0.2 0  0.78 0.2 0  0.8100000000000001 0.2 0  0.84 0.2 0  0.87 0.2 0  0.9 0.2 0  0.93 0.2 0  0.96 0.2 0  0.99 0.2 0  1.02 0.2 0  1.05 0.2 0  1.08 0.2 0  1.11 0.2 0  1.14 0.2 0  1.17 0.2 0  1.2 0.2 0  1.23 0.2 0  1.26 0.2 0  1.29 0.2 0  1.32 0.2 0  1.35 0.2 0  1.38 0.2 0  1.41 0.2 0  1.44 0.2 0  1.47 0.2 0  1.5 0.2 0  0 0.22 0  0.03 0.22 0  0.06 0.22 0  0.09 0.22 0  0.12 0.22 0  0.15 0.22 0  0.18 0.22 0  0.21 0.22 0  0.24 0.22 0  0.27 0.22 0  0.3 0.22 0  0.33 0.22 0  0.36 0.22 0  0.39 0.22 0  0.42 0.22 0  0.45 0.22 0  0.48 0.22 0  0.51 0.22 0  0.54 0.22 0  0.57 0.22 0  0.6 0.22 0  0.63 0.22 0  0.66 0.22 0  0.6899999999999999 0.22 0  0.72 0.22 0  0.75 0.22 0  0.78 0.22 0  0.8100000000000001 0.22 0  0.84 0.22 0  0.87 0.22 0  0.9 0.22 0  0.93 0.22 0  0.96 0.22 0  0.99 0.22 0  1.02 0.22 0  1.05 0.22 0  1.08 0.22 0  1.11 0.22 0  1.14 0.22 0  1.17 0.22 0  1.2 0.22 0  1.23 0.22 0  1.26 0.22 0  1.29 0.22 0  1.32 0.22 0  1.35 0.22 0  1.38 0.22 0  1.41 0.22 0  1.44 0.22 0  1.47 0.22 0  1.5 0.22 0  0 0.24 0  0.03 0.24 0  0.06 0.24 0  0.09 0.24 0  0.12 0.24 0  0.15 0.24 0  0.18 0.24 0  0.21 0.24 0  0.24 0.24 0  0.27 0.24 0  0.3 0.24 0  0.33 0.24 0  0.36 0.24 0  0.39 0.24 0  0.42 0.24 0  0.45 0.24 0  0.48 0.24 0  0.51 0.24 0  0.54 0.24 0  0.57 0.24 0  0.6 0.24 0  0.63 0.24 0  0.66 0.24 0  0.6899999999999999 0.24 0  0.72 0.24 0  0.75 0.24 0  0.78 0.24 0  0.8100000000000001 0.24 0  0.84 0.24 0  0.87 0.24 0  0.9 0.24 0  0.93 0.24 0  0.96 0.24 0  0.99 0.24 0  1.02 0.24 0  1.05 0.24 0  1.08 0.24 0  1.11 0.24 0  1.14 0.24 0  1.17 0.24 0  1.2 0.24 0  1.23 0.24 0  1.26 0.24 0  1.29 0.24 0  1.32 0.24 0  1.35 0.24 0  1.38 0.24 0  1.41 0.24 0  1.44 0.24 0  1.47 0.24 0  1.5 0.24 0  0 0.26 0  0.03 0.26 0  0.06 0.26 0  0.09 0.26 0  0.12 0.26 0  0.15 0.26 0  0.18 0.26 0  0.21 0.26 0  0.24 0.26 0  0.27 0.26 0  0.3 0.26 0  0.33 0.26 0  0.36 0.26 0  0.39 0.26 0  0.42 0.26 0  0.45 0.26 0  0.48 0.26 0  0.51 0.26 0  0.54 0.26 0  0.57 0.26 0  0.6 0.26 0  0.63 0.26 0  0.66 0.26 0  0.6899999999999999 0.26 0  0.72 0.26 0  0.75 0.26 0  0.78 0.26 0  0.8100000000000001 0.26 0  0.84 0.26 0  0.87 0.26 0  0.9 0.26 0  0.93 0.26 0  0.96 0.26 0  0.99 0.26 0  1.02 0.26 0  1.05 0.26 0  1.08 0.26 0  1.11 0.26 0  1.14 0.26 0  1.17 0.26 0  1.2 0.26 0  1.23 0.26 0  1.26 0.26 0  1.29 0.26 0  1.32 0.26 0  1.35 0.26 0  1.38 0.26 0  1.41 0.26 0  1.44 0.26 0  1.47 0.26 0  1.5 0.26 0  0 0.28 0  0.03 0.28 0  0.06 0.28 0  0.09 0.28 0  0.12 0.28 0  0.15 0.28 0  0.18 0.28 0  0.21 0.28 0  0.24 0.28 0  0.27 0.28 0  0.3 0.28 0  0.33 0.28 0  0.36 0.28 0  0.39 0.28 0  0.42 0.28 0  0.45 0.28 0  0.48 0.28 0  0.51 0.28 0  0.54 0.28 0  0.57 0.28 0  0.6 0.28 0  0.63 0.28 0  0.66 0.28 0  0.6899999999999999 0.28 0  0.72 0.28 0  0.75 0.28 0  0.78 0.28 0  0.8100000000000001 0.28 0  0.84 0.28 0  0.87 0.28 0  0.9 0.28 0  0.93 0.28 0  0.96 0.28 0  0.99 0.28 0  1.02 0.28
[...]
<PointData  Scalars="ControlVisualisation"> 
<DataArray  type="Float64"  Name="ControlVisualisation"  format="ascii">1.3866353204627362e-02  8.9884430875430080e-03  9.0105767115814511e-03  9.0563193057543491e-03  9.1257727451534432e-03  9.2084353440599204e-03  9.2911674766871719e-03  9.3649166991096114e-03  9.4251625625054371e-03  9.4704492784467263e-03  9.5017800367985638e-03  9.5218832233416907e-03  9.5338343353104597e-03  9.5398956946722950e-03  9.5413549407425587e-03  9.5391623257956859e-03  9.5343911939067150e-03  9.5280763159270726e-03  9.5209566619400693e-03  9.5135508442851392e-03  9.5063622233685779e-03  9.4999230501586016e-03  9.4946946834339897e-03  9.4909878844438161e-03  9.4889756208891198e-03  9.4887526085031277e-03  9.4903709267049885e-03  9.4938195241569632e-03  9.4989638889877992e-03  9.5055011237484711e-03  9.5129880167291389e-03  9.5209306870876215e-03  9.5288157664397515e-03  9.5359881626489729e-03  9.5415657533858139e-03  9.5446305214307824e-03  9.5444256834786786e-03  9.5402485184716834e-03  9.5310465153327639e-03  9.5147224558080560e-03  9.4880858376517139e-03  9.4482537738810272e-03  9.3938369257257175e-03  9.3249417099812420e-03  9.2442268420880706e-03  9.1591916059609469e-03  9.0824062583656252e-03  9.0263569748111044e-03  8.9955292213027456e-03  8.9832395093210789e-03  3.1996221305950208e-02  8.9850913802941856e-03  4.4758654750065669e-03  4.5078309413700618e-03  4.5794571440042463e-03  4.6970683645807696e-03  4.8477730755522577e-03  5.0084946145590604e-03  5.1593220299005023e-03  5.2882457874907128e-03  5.3894432526704374e-03  5.4618875374374491e-03  5.5089827714180986e-03  5.5367760828139486e-03  5.5510147763892671e-03  5.5557546011916351e-03  5.5537732913363124e-03  5.5469962875542766e-03  5.5366353458114644e-03  5.5235311053052540e-03  5.5086106672847836e-03  5.4931516727230057e-03  5.4786491460378801e-03  5.4664295795316233e-03  5.4573955523578351e-03  5.4520665616067726e-03  5.4507590080145807e-03  5.4536837918409782e-03  5.4608645623652682e-03  5.4719302361672818e-03  5.4859640494469460e-03  5.5016209020830927e-03  5.5175542194601419e-03  5.5328950279518009e-03  5.5472737470907835e-03  5.5600156424660168e-03  5.5690454795085647e-03  5.5710253698084472e-03  5.5631047037632579e-03  5.5435626225938464e-03  5.5097658234919879e-03  5.4568736920891413e-03  5.3795569925373724e-03  5.2743947602678226e-03  5.1412971366030773e-03  4.9861894301697039e-03  4.8237013969189618e-03  4.6761207372763465e-03  4.5653947523681604e-03  4.5010362137004566e-03  4.4734473408235059e-03  8.9826580192606947e-03  8.9916180678011898e-03  4.4854991106731646e-03  4.5314674218284341e-03  4.6348361622839413e-03  4.8054130073091729e-03  5.0254396490788927e-03  5.2626000341117769e-03  5.4884045416172204e-03  5.6862854250786425e-03  5.8477273890747512e-03  5.9669851706614513e-03  6.0421675524853537e-03  6.0783319116308396e-03  6.0860607706865084e-03  6.0780778788625317e-03  6.0651519775613482e-03  6.0515928589128234e-03  6.0356170345278902e-03  6.0143232315745688e-03  5.9873845069801411e-03  5.9573926422015321e-03  5.9282154919621469e-03  5.9031734583684025e-03  5.8843007133880503e-03  5.8727087680910846e-03  5.8692093658342546e-03  5.8745238750518456e-03  5.8889314923434950e-03  5.9115530912189759e-03  5.9397653813753372e-03  5.9694829932328717e-03  5.9967886547062860e-03  6.0205436892682256e-03  6.0440807644418703e-03  6.0725070771845292e-03  6.1047681839288912e-03  6.1290270839072574e-03  6.1304393064911915e-03  6.1015934089441890e-03  6.0424770906201226e-03  5.9547953894844626e-03  5.8373677874509460e-03  5.6846174996820920e-03  5.4904919168525567e-03  5.2608395462753494e-03  5.0186724010610091e-03  4.7974262510213257e-03  4.6286040205497057e-03  4.5276834610472379e-03  4.4838716421923492e-03  8.9878179694369616e-03  8.9969892400300951e-03  4.4979935021766618e-03  4.5641218709059376e-03  4.7000328340389471e-03  4.9031257333901597e-03  5.1406243348823709e-03  5.3761093875329272e-03  5.5870011342576279e-03  5.7667736563175283e-03  5.9157910927536564e-03  6.0287004422895909e-03  6.0957176242340799e-03  6.1159235325816729e-03  6.1015605254899265e-03  6.0730900184715253e-03  6.0486112324300298e-03  6.0324041989776814e-03  6.0167849400584068e-03  5.9937686243666539e-03  5.9618000671324521e-03  5.9249867679880153e-03  5.8891889415615996e-03  5.8587736048519743e-03  5.8359071903247503e-03  5.8216394539451436e-03  5.8169817503315657e-03  5.8231011718663014e-03  5.8407142367608517e-03  5.8689626743685663e-03  5.9042792805633973e-03  5.9403890828750089e-03  5.9706346022373935e-03  5.9928731080771975e-03  6.0142977606318882e-03  6.0487660068535912e-03  6.1011208792165319e-03  6.1532128616824276e-03  6.1759519431659419e-03  6.1539615880739813e-03  6.0914875378711170e-03  6.0019237755816789e-03  5.8960671155893667e-03  5.7712830271248513e-03  5.6075811724147244e-03  5.3936057453984540e-03  5.1435863957706007e-03  4.8948073769851091e-03  4.6908140785793676e-03  4.5569256788264853e-03  4.4947179327742177e-03  8.9945582004162302e-03  8.9947147711322735e-03  4.5147872936941221e-03  4.6438525725501899e-03  4.8981789422092251e-03  5.2181674141256740e-03  5.4729065226461144e-03  5.6298933150191076e-03  5.7508152146021159e-03  5.8675456147155086e-03  5.9752011831721071e-03  6.0595568613596162e-03  6.1033355500306977e-03  6.1003210863203559e-03  6.0629454611464614e-03  6.0179335084616266e-03  5.9889993616374926e-03  5.9769079003659928e-03  5.9654383968155656e-03  5.9418823364474184e-03  5.9051885623921940e-03  5.8623400410613164e-03  5.8215567510377904e-03  5.7877892610612618e-03  5.7626838513357538e-03  5.7468395045799370e-03  5.7413288749321653e-03  5.7477337455896478e-03  5.7673309184880783e-03  5.7997050204005220e-03  5.8410048566247489e-03  5.8831767499202296e-03  5.9161988603696376e-03  5.9351152755142403e-03  5.9493642790755712e-03  5.9827602370767308e-03  6.0506962750381931e-03  6.1316779397458544e-03  6.1793467331208154e-03  6.1665304966442222e-03  6.1002477436080766e-03  6.0088295608276441e-03  5.9349973895870094e-03  5.9084239699324628e-03  5.8827919164133862e-03  5.7718055878210979e-03  5.5306018432202449e-03  5.1926374221494308e-03  4.8602002626165017e-03  4.6240494664628613e-03  4.5055424948984455e-03  8.9966427582093503e-03  8.9896306982239667e-03  4.5526322013030801e-03  4.9220170246504083e-03  5.6340820124814849e-03  6.6200244183481950e-03  7.2503547359853114e-03  7.0731135103255559e-03  6.5396046123443949e-03  6.2312765623280808e-03  6.1756185682107848e-03  6.1870215540387455e-03  6.1712717740539493e-03  6.1172007539684412e-03  6.0429131090500880e-03  5.9795956421696403e-03  5.9529188077341840e-03  5.9531096573394587e-03  5.9501076333273121e-03  5.9264029756438174e-03  5.8835773629825972e-03  5.8333283283181336e-03  5.7869867109383742e-03  5.7498363213008682e-03  5.7225190778351894e-03  5.7050083510278467e-03  5.6984764370345787e-03  5.7049339229546048e-03  5.7262466016710254e-03  5.7626897062851117e-03  5.8106575763937126e-03  5.8605595458469583e-03  5.8981950756342282e-03  5.9137420004592208e-03  5.9171057241149362e-03  5.9437239326637688e-03  6.0261904293736597e-03  6.1427200820899884e-03  6.2210678103803898e-03  6.2178111179457471e-03  6.1519962289943745e-03  6.0960295430362568e-03  6.1950999335679225e-03  6.5420692391896110e-03  6.9762365358741057e-03  7.1810480079181373e-03  7.0207384606189565e-03  6.5721106488720775e-03  5.7606779692791210e-03  4.8741195951942703e-03  4.5222648930789812e-03  8.9911116055241547e-03  9.0424489864817693e-03  4.8430026763443632e-03  6.9303197817210420e-03  9.2320973737888244e-03  1.0451404035212507e-02  1.1822764797171696e-02  1.1933085636969040e-02  1.0332285535096766e-02  8.1654983046777138e-03  6.9655479820851362e-03  6.5717747330219008e-03  6.3878765981895168e-03  6.2219468579414895e-03  6.0614239835193430e-03  5.9471330975741782e-03  5.9146550015622881e-03  5.9336823564564841e-03  5.9462838411580444e-03  5.9258422606236847e-03  5.8775148584399063e-03  5.8198497239710109e-03  5.7684092838308117e-03  5.7284693755987603e-03  5.6991465938387746e-03  5.6798193340150951e-03  5.6720204901928523e-03  5.6782745423427736e-03  5.7009887111079639e-03  5.7412808193935188e-03  5.7963119482494028e-03  5.8551487413935578e-03  5.8989251721332870e-03  5.9101532340999179e-03  5.8977879694463902e-03  5.9105639864835587e-03  6.0068432119388141e-03  6.1695466975609046e-03  6.2862643401905812e-03  6.3126013518449379e-03  6.3334810244548047e-03  6.5734690660908448e-03  7.3630169920771375e-03  8.8207472158602692e-03  1.0349790083173499e-02  1.1127317421793929e-02  1.0858253373235573e-02  9.7619485716499248e-03  9.6417945269902591e-03  7.1977016075386755e-03  4.7630568149229068e-03  8.9934992284163087e-03  9.7057430273320630e-03  7.4416811558193387e-03  1.3959385620757525e-02  3.7808735497096742e-02  3.7608785801597849e-02  2.5798300190725574e-02  1.8455100130673866e-02  1.6977312089930252e-02  1.4461160344306381e-02  1.0506163846065893e-02  8.1072805458683259e-03  7.0269097865793056e-03  6.5022154968499488e-03  6.1887316541716936e-03  5.9757099354793329e-03  5.8901421614598057e-03  5.9052251091742973e-03  5.9288610649517485e-03  5.9115192819814517e-03  5.8587091226681995e-03  5.7958226283847782e-03  5.7422634539685807e-03  5.7020863078869038e-03  5.6720366312720876e-03  5.6511729479449659e-03  5.6419743393657336e-03  5.6476698151230161e-03  5.6711351842356691e-03  5.7145588145532111e-03  5.7765911563111760e-03  5.8459878713987253e-03  5.9001843397829086e-03  5.9081615783524817e-03  5.8773168784679621e-03  5.8644251727799947e-03  5.9718216078595279e-03  6.2145658853230892e-03  6.4493437038797979e-03  6.6640192015343267e-03  7.1162540587059557e-03  8.3867677731051110e-03  1.0960555185792240e-02  1.4133622192992929e-02  1.6148748495544776e-02  1.8322294675879775e-02  2.9659376911226987e-02  4.2061047784259488e-02  4.2534132451571421e-02  2.8455551530495587e-02  6.3544557000567731e-03  9.0965682479527930e-03  1.6832774213731139e-02  6.1825120146954571e-02  1.8664332032308159e-01  1.9443992582710720e-01  1.7989366471322280e-01  1.1458326943180805e-01  5.7279180748097056e-02  2.9832216278917037e-02  2.2096354572615034e-02  1.8530368816307406e-02  1.3214709914881283e-02  9.5694084833198093e-03  7.4521523031606616e-03  6.4847871181588175e-03  6.0959307938186326e-03  5.9617125408314457e-03  5.9370206743048432e-03  5.9273417294417831e-03  5.8869792461651773e-03  5.8150518289784344e-03  5.7426573376311643e-03  5.6894846625940862e-03  5.6526376988555579e-03  5.6239145622479754e-03  5.6023269366510930e-03  5.5921034339100114e-03  5.5974411538205881e-03  5.6217037894875505e-03  5.6686162271145967e-03  5.7394572261669028e-03  5.8253143039498417e-03  5.8991583738495059e-03  5.8985799872189717e-03  5.8305409970230287e-03  5.7658479672469199e-03  5.9469468422581225e-03  6.4678856596480719e-03  7.1356280327806798e-03  8.0279115588639035e-03  9.8646659567051004e-03  1.3515311513665466e-02  1.8216443872551665e-02  2.0942387306251965e-02  3.0309252572459346e-02  6.0396033993796228e-02  1.1044484424681730e-01  1.5903234590503421e-01  1.8598926399797572e-01  2.0104986563598051e-01  4.8743084852730323e-02  1.1851210546579567e-02  4.0922086700250232e-01  4.6014513401415902e-01  4.9875325316399499e-01  4.0864328300732633e-01  3.5134425965471872e-01  2.6651162661930816e-01  1.5954356447904994e-01  7.4436376241098251e-02  3.2478005218281154e-02  2.0311250764200879e-02  1.7744256588299208e-02  1.4408882292551359e-02  1.0853722517722059e-02  7.8481580979916730e-03  6.4872776631203569e-03  6.1026405974857019e-03  6.0692766206407274e-03  6.0313277441452276e-03  5.9176622449066893e-03  5.7870147527959810e-03  5.6801704885982730e-03  5.6166061309784049e-03  5.5800133051767380e-03  5.5508432145878889e-03  5.5273903369311445e-03  5.5162566813911715e-03  5.5223641822628221e-03  5.5492589279449705e-03  5.6026255994357146e-03  5.6873868797337156e-03  5.7982729311566372e-03  5.8960591913674613e-03  5.8850857564313229e-03  5.8364202660549768e-03  5.8029428369913427e-03  6.1771988805757712e-03  7.3802837501719884e-03  9.0603832998278813e-03  1.1092363270061432e-02  1.4571704591743832e-02  1.9897214110151839e-02  2.1735511953612986e-02  3.5923454567332841e-02  8.2457516105110817e-02  1.7580372705924269e-01  2.8239573830891546e-01  3.4518645713253782e-01  3.8364382194288055e-01  4.1377945852623793e-01  4.7648181591636951e-01  3.2932608033789779e-01  9.6356927730330399e-01  9.5018482016560069e-01  8.2401694159805949e-01  6.4780943883823461e-01  5.3395264440134826e-01  4.2403959494737042e-01  3.0528588411253005e-01  1.8860307568380907e-01  9.7915967425422204e-02  4.2959078787512844e-02  2.1177434148233264e-02  1.5864991304758474e-02  1.4895999776783195e-02  1.2451610989146541e-02  9.2021791835007472e-03  7.2399638127357505e-03  6.5457103927091219e-03  6.2816291875067050e-03  6.0477995284812600e-03  5.8163245387653165e-03  5.6533461553822453e-03  5.5620242184056977e-03  5.5117137128039917e-03  5.4717883823306359e-03  5.4395604943580436e-03  5.4241601894521995e-03  5.4299556297771664e-03  5.4593142645587419e-03  5.5202815279667763e-03  5.6245838832488194e-03  5.7752829420949295e-03  5.9309767987705073e-03  6.0029538555486277e-03  6.2655922090623321e-03  6.6127876625368901e-03  7.9101829206465833e-03  9.8360282984515258e-03  1.2013832823279478e-02  1.2929608492370116e-02  1.6840361485090920e-02  2.6174190887404684e-02  4.5486438420284832e-02  1.0431282155834108e-01  2.1452750570333887e-01  3.3260542883810040e-01  4.2988865600016279e-01  5.2673074027385780e-01  6.7531253709065919e-01  8.4762809007085094e-01  9.5918810367747198e-01  9.4325346843031777e-01  9.9004909010944786e-01  9.9179337748825536e-01  9.7791091714851286e-01  8.9929412248544416e-01  7.6297223968273931e-01  6.2600994514900599e-01  4.8304952719841593e-01  3.4765755765064787e-01  2.2717532285821770e-01  1.3427376707684566e-01  7.1743494260236254e-02  3.2872094900869321e-02  1.7193582988965405e-02  1.7313707614605298e-02  1.6077372806261363e-02  1.1966814652143092e-02  9.2742750396063132e-03  7.8259298090472221e-03  6.9640493240193686e-03  6.3348110610840832e-03  5.9598969441488963e-03  5.7706197577175869e-03  5.6561180361050824e-03  5.5685765037745043e-03  5.5073025368303453e-03  5.4810562933551204e-03  5.4899985712216666e-03  5.5380792066100082e-03  5.6482200274655852e-03  5.8569000076263986e-03  6.1863006753493863e-03  6.6055297526359802e-03  7.0289532330223654e-03  7.8120224847657684e-03  1.0067788887602038e-02  9.9535320270943382e-03  1.5169487415864699e-02  1.2988516888660189e-02  2.2027640147714876e-02  4.5499352992559770e-02  7.1967560010688575e-02  1.3205554370447606e-01  2.5130773419706087e-01  3.8304506666854510e-01  5.0967713342536181e-01  6.3316608731529889e-01  7.7892176354242748e-01  9.2252884312111116e-01  9.8234907383253489e-01  9.9230451386675189e-01  9.8711556376837561e-01  9.9312019299934184e-01  9.9548843649121821e-01  9.9124299618789657e-01  9.7563792333800692e-01  9.0302197339040280e-01  8.0245146549744506e-01  6.7645677789549075e-01  5.2745559274877207e-01  3.9058585582618732e-01  2.6855615101919178e-01  1.7960027218232627e-01  1.1483596564568400e-01  5.3295195743101119e-02  1.8065727607973182e-02  1.7573413586662846e-02  1.8926107130020409e-02  1.4358214043115835e-02  1.2134071070442815e-02  1.0915898849669221e-02  9.4723257903722088e-03  8.2276729675567761e-03  7.5626002925279507e-03  7.1674564490384835e-03  6.8777943073418529e-03  6.6941456112464713e-03  6.6253211618760004e-03  6.6547232296347708e-03  6.7857681404347395e-03  7.0813270553986051e-03  7.6483161510704153e-03  8.5457744725995159e-03  9.6637056258318445e-03  1.0824405673158108e-02  1.2110428704698214e-02  1.4504242646624109e-02  1.9258469296872235e-02  2.1221399715079400e-02  2.6715264462810959e-02  6.0219732517752748e-02  1.0118437957598847e-01  1.7919666560758546e-01  2.9917201661293807e-01  4.2429824783917969e-01  5.5766920541371023e-01  6.9235218039388180e-01  8.1412866476981416e-01  9.2006193610858744e-01  9.7825564742620330e-01  9.9145197117951334e-01  9.9548917110268509e-01  9.9263776450865993e-01  9.9273782741431738e-01  9.9576770393349512e-01  9.9285732747429811e-01  9.8533375865777417e-01  9.5851018333783755e-01  8.8637472596097211e-01  8.1152143528319121e-01  6.9553947059140619e-01  5.5754323651015547e-01  4.2856322010691078e-01  3.0904168321849057e-01  2.2090079994998596e-01  1.5770766596996677e-01  7.9780922075211064e-02  2.4177046545056355e-02  1.3509754999226076e-02  1.3945695776683541e-02  1.1297812702294265e-02  1.2701333980688383e-02  1.3434733800071978e-02  1.2266122750173535e-02  1.1041560532782491e-02  1.0406681330342338e-02  1.0081030828569624e-02  9.8764273507213497e-03  9.7829190773672491e-03  9.8556825675916015e-03  1.0132289926967776e-02  1.0606605672925038e-02  1.1246070755498994e-02  1.2008931963270734e-02  1.2715115040566362e-02  1.3020071398423554e-02  1.3229440740703993e-02  1.4759756559297569e-02  1.7674233856969146e-02  3.0263807528391792e-02  6.2524443812184416e-02  1.2219705509463319e-01  2.2751025478618667e-01  3.4413661807252482e-01  4.6079800064229354e-01  5.8687645681288325e-01  7.1803865055832938e-01  8.2529622109733503e-01  9.0094480907016483e-01  9.6153245909244445e-01  9.8516431082295963e-01  9.9262892386261758e-01  9.9567209668599477e-01  9.9314887046451628e-01  9.8774791453212973e-01  9.9365535705670205e-01  9.9056116406242034e-01  9.8394530470163832e-01  9.6712824129524255e-01  9.2572434143972493e-01  8.7291090900508217e-01  8.1067013325140358e-01  7.0568036974901027e-01  5.8380878460000307e-01  4.6640212098407774e-01  3.5413771156210150e-01  2.6384279389838011e-01  1.9941202006051958e-01  1.2276014738013509e-01  5.6221035483011300e-02  2.9776512158198425e-02  2.2011589981925286e-02  1.5558692415172163e-02  1.1265020620577902e-02  9.8188343493016556e-03  8.5376481740525346e-03  7.2597821702341178e-03  6.9267103341991952e-03  7.1434547805233062e-03  7.4146403121343150e-03  7.6084187943222734e-03  7.9062140270817413e-03  8.3214909431700984e-03  8.7024170100712013e-03  9.4256140657739303e-03  1.1560139638535336e-02  1.5703097394224361e-02  2.2309797095654609e-02  3.4371108000914134e-02  5.5019246935641378e-02  8.6894491630491316e-02  1.6210783401422113e-01  2.7957013721422314e-01  3.9087850039114180e-01  4.9674408391278430e-01  6.1010788755761458e-01  7.2752468846856821e-01  8.2622845436126724e-01  8.8714994479460818e-01  9.3287905926791859e-01  9.6678205295939901e-01  9.8265402953898817e-01  9.8977030025962132e-01  9.9333078485893578e-01  9.9032015694547559e-01  9.4061084369832626e-01  9.7846173711083673e-01  9.7310903875609112e-01  9.6621345536324443e-01  9.5340160014433384e-01  9.2961153080530590e-01  8.9752404446002709e-01  8.6413329919894921e-01  8.0760000910251772e-01  7.1764707296979202e-01  6.1479560410753653e-01  5.1437216720047874e-01  4.1591809355187687e-01  3.2615921108724494e-01  2.5521364159760268e-01  1.8817935197067293e-01  1.2342463322777705e-01  7.9472098068629066e-02  5.4402471378215946e-02  3.8770649233405063e-02  2.9751930923389312e-02  2.6825210544247705e-02  2.6444004934693253e-02  2.5836999240832138e-02  2.4703247147343267e-02  2.3773600708646994e-02  2.3562030018618695e-02  2.4079413652014089e-02  2.5557291796039661e-02  2.8841268556290163e-02  3.4929590344092931e-02  4.4629239293057781e-02  5.9235944254358623e-02  7.9639405680008282e-02  1.0734274926406308e-01  1.5765835595786323e-01  2.4689608717264444e-01  3.5096520030381861e-01  4.4621964206583303e-01  5.3788729880727593e-01  6.3509892024774395e-01  7.3543664082202942e-01  8.2075491551998991e-01  8.7580810572279788e-01  9.0890626112782591e-01  9.3486537956369442e-01  9.5245589317662693e-01  9.6302599288854096e-01  9.7449248096503649e-01  9.7952509571466106e-01  9.6777131552069118e-01  3.0135671778632483e-01  6.5750627789653782e-01  7.9983287110666701e-01  8.6080065888592627e-01  8.9326422389515514e-01  9.0343664344046271e-01  8.9709935914835404e-01  8.8134216151759415e-01  8.5588689849810118e-01  8.0913681207124299e-01  7.3847735495520483e-01  6.5716071470371940e-01  5.765458967