<?xml version="1.0"?>
<VTKFile type="UnstructuredGrid"  version="0.1"  >
<UnstructuredGrid>
<Piece  NumberOfPoints="2601" NumberOfCells="5000">
<Points>
<DataArray  type="Float64"  NumberOfComponents="3"  format="ascii">0 0 0  0.03 0 0  0.06 0 0  0.09 0 0  0.12 0 0  0.15 0 0  0.18 0 0  0.21 0 0  0.24 0 0  0.27 0 0  0.3 0 0  0.33 0 0  0.36 0 0  0.39 0 0  0.42 0 0  0.45 0 0  0.48 0 0  0.51 0 0  0.54 0 0  0.57 0 0  0.6 0 0  0.63 0 0  0.66 0 0  0.6899999999999999 0 0  0.72 0 0  0.75 0 0  0.78 0 0  0.8100000000000001 0 0  0.84 0 0  0.87 0 0  0.9 0 0  0.93 0 0  0.96 0 0  0.99 0 0  1.02 0 0  1.05 0 0  1.08 0 0  1.11 0 0  1.14 0 0  1.17 0 0  1.2 0 0  1.23 0 0  1.26 0 0  1.29 0 0  1.32 0 0  1.35 0 0  1.38 0 0  1.41 0 0  1.44 0 0  1.47 0 0  1.5 0 0  0 0.02 0  0.03 0.02 0  0.06 0.02 0  0.09 0.02 0  0.12 0.02 0  0.15 0.02 0  0.18 0.02 0  0.21 0.02 0  0.24 0.02 0  0.27 0.02 0  0.3 0.02 0  0.33 0.02 0  0.36 0.02 0  0.39 0.02 0  0.42 0.02 0  0.45 0.02 0  0.48 0.02 0  0.51 0.02 0  0.54 0.02 0  0.57 0.02 0  0.6 0.02 0  0.63 0.02 0  0.66 0.02 0  0.6899999999999999 0.02 0  0.72 0.02 0  0.75 0.02 0  0.78 0.02 0  0.8100000000000001 0.02 0  0.84 0.02 0  0.87 0.02 0  0.9 0.02 0  0.93 0.02 0  0.96 0.02 0  0.99 0.02 0  1.02 0.02 0  1.05 0.02 0  1.08 0.02 0  1.11 0.02 0  1.14 0.02 0  1.17 0.02 0  1.2 0.02 0  1.23 0.02 0  1.26 0.02 0  1.29 0.02 0  1.32 0.02 0  1.35 0.02 0  1.38 0.02 0  1.41 0.02 0  1.44 0.02 0  1.47 0.02 0  1.5 0.02 0  0 0.04 0  0.03 0.04 0  0.06 0.04 0  0.09 0.04 0  0.12 0.04 0  0.15 0.04 0  0.18 0.04 0  0.21 0.04 0  0.24 0.04 0  0.27 0.04 0  0.3 0.04 0  0.33 0.04 0  0.36 0.04 0  0.39 0.04 0  0.42 0.04 0  0.45 0.04 0  0.48 0.04 0  0.51 0.04 0  0.54 0.04 0  0.57 0.04 0  0.6 0.04 0  0.63 0.04 0  0.66 0.04 0  0.6899999999999999 0.04 0  0.72 0.04 0  0.75 0.04 0  0.78 0.04 0  0.8100000000000001 0.04 0  0.84 0.04 0  0.87 0.04 0  0.9 0.04 0  0.93 0.04 0  0.96 0.04 0  0.99 0.04 0  1.02 0.04 0  1.05 0.04 0  1.08 0.04 0  1.11 0.04 0  1.14 0.04 0  1.17 0.04 0  1.2 0.04 0  1.23 0.04 0  1.26 0.04 0  1.29 0.04 0  1.32 0.04 0  1.35 0.04 0  1.38 0.04 0  1.41 0.04 0  1.44 0.04 0  1.47 0.04 0  1.5 0.04 0  0 0.06 0  0.03 0.06 0  0.06 0.06 0  0.09 0.06 0  0.12 0.06 0  0.15 0.06 0  0.18 0.06 0  0.21 0.06 0  0.24 0.06 0  0.27 0.06 0  0.3 0.06 0  0.33 0.06 0  0.36 0.06 0  0.39 0.06 0  0.42 0.06 0  0.45 0.06 0  0.48 0.06 0  0.51 0.06 0  0.54 0.06 0  0.57 0.06 0  0.6 0.06 0  0.63 0.06 0  0.66 0.06 0  0.6899999999999999 0.06 0  0.72 0.06 0  0.75 0.06 0  0.78 0.06 0  0.8100000000000001 0.06 0  0.84 0.06 0  0.87 0.06 0  0.9 0.06 0  0.93 0.06 0  0.96 0.06 0  0.99 0.06 0  1.02 0.06 0  1.05 0.06 0  1.08 0.06 0  1.11 0.06 0  1.14 0.06 0  1.17 0.06 0  1.2 0.06 0  1.23 0.06 0  1.26 0.06 0  1.29 0.06 0  1.32 0.06 0  1.35 0.06 0  1.38 0.06 0  1.41 0.06 0  1.44 0.06 0  1.47 0.06 0  1.5 0.06 0  0 0.08 0  0.03 0.08 0  0.06 0.08 0  0.09 0.08 0  0.12 0.08 0  0.15 0.08 0  0.18 0.08 0  0.21 0.08 0  0.24 0.08 0  0.27 0.08 0  0.3 0.08 0  0.33 0.08 0  0.36 0.08 0  0.39 0.08 0  0.42 0.08 0  0.45 0.08 0  0.48 0.08 0  0.51 0.08 0  0.54 0.08 0  0.57 0.08 0  0.6 0.08 0  0.63 0.08 0  0.66 0.08 0  0.6899999999999999 0.08 0  0.72 0.08 0  0.75 0.08 0  0.78 0.08 0  0.8100000000000001 0.08 0  0.84 0.08 0  0.87 0.08 0  0.9 0.08 0  0.93 0.08 0  0.96 0.08 0  0.99 0.08 0  1.02 0.08 0  1.05 0.08 0  1.08 0.08 0  1.11 0.08 0  1.14 0.08 0  1.17 0.08 0  1.2 0.08 0  1.23 0.08 0  1.26 0.08 0  1.29 0.08 0  1.32 0.08 0  1.35 0.08 0  1.38 0.08 0  1.41 0.08 0  1.44 0.08 0  1.47 0.08 0  1.5 0.08 0  0 0.1 0  0.03 0.1 0  0.06 0.1 0  0.09 0.1 0  0.12 0.1 0  0.15 0.1 0  0.18 0.1 0  0.21 0.1 0  0.24 0.1 0  0.27 0.1 0  0.3 0.1 0  0.33 0.1 0  0.36 0.1 0  0.39 0.1 0  0.42 0.1 0  0.45 0.1 0  0.48 0.1 0  0.51 0.1 0  0.54 0.1 0  0.57 0.1 0  0.6 0.1 0  0.63 0.1 0  0.66 0.1 0  0.6899999999999999 0.1 0  0.72 0.1 0  0.75 0.1 0  0.78 0.1 0  0.8100000000000001 0.1 0  0.84 0.1 0  0.87 0.1 0  0.9 0.1 0  0.93 0.1 0  0.96 0.1 0  0.99 0.1 0  1.02 0.1 0  1.05 0.1 0  1.08 0.1 0  1.11 0.1 0  1.14 0.1 0  1.17 0.1 0  1.2 0.1 0  1.23 0.1 0  1.26 0.1 0  1.29 0.1 0  1.32 0.1 0  1.35 0.1 0  1.38 0.1 0  1.41 0.1 0  1.44 0.1 0  1.47 0.1 0  1.5 0.1 0  0 0.12 0  0.03 0.12 0  0.06 0.12 0  0.09 0.12 0  0.12 0.12 0  0.15 0.12 0  0.18 0.12 0  0.21 0.12 0  0.24 0.12 0  0.27 0.12 0  0.3 0.12 0  0.33 0.12 0  0.36 0.12 0  0.39 0.12 0  0.42 0.12 0  0.45 0.12 0  0.48 0.12 0  0.51 0.12 0  0.54 0.12 0  0.57 0.12 0  0.6 0.12 0  0.63 0.12 0  0.66 0.12 0  0.6899999999999999 0.12 0  0.72 0.12 0  0.75 0.12 0  0.78 0.12 0  0.8100000000000001 0.12 0  0.84 0.12 0  0.87 0.12 0  0.9 0.12 0  0.93 0.12 0  0.96 0.12 0  0.99 0.12 0  1.02 0.12 0  1.05 0.12 0  1.08 0.12 0  1.11 0.12 0  1.14 0.12 0  1.17 0.12 0  1.2 0.12 0  1.23 0.12 0  1.26 0.12 0  1.29 0.12 0  1.32 0.12 0  1.35 0.12 0  1.38 0.12 0  1.41 0.12 0  1.44 0.12 0  1.47 0.12 0  1.5 0.12 0  0 0.14 0  0.03 0.14 0  0.06 0.14 0  0.09 0.14 0  0.12 0.14 0  0.15 0.14 0  0.18 0.14 0  0.21 0.14 0  0.24 0.14 0  0.27 0.14 0  0.3 0.14 0  0.33 0.14 0  0.36 0.14 0  0.39 0.14 0  0.42 0.14 0  0.45 0.14 0  0.48 0.14 0  0.51 0.14 0  0.54 0.14 0  0.57 0.14 0  0.6 0.14 0  0.63 0.14 0  0.66 0.14 0  0.6899999999999999 0.14 0  0.72 0.14 0  0.75 0.14 0  0.78 0.14 0  0.8100000000000001 0.14 0  0.84 0.14 0  0.87 0.14 0  0.9 0.14 0  0.93 0.14 0  0.96 0.14 0  0.99 0.14 0  1.02 0.14 0  1.05 0.14 0  1.08 0.14 0  1.11 0.14 0  1.14 0.14 0  1.17 0.14 0  1.2 0.14 0  1.23 0.14 0  1.26 0.14 0  1.29 0.14 0  1.32 0.14 0  1.35 0.14 0  1.38 0.14 0  1.41 0.14 0  1.44 0.14 0  1.47 0.14 0  1.5 0.14 0  0 0.16 0  0.03 0.16 0  0.06 0.16 0  0.09 0.16 0  0.12 0.16 0  0.15 0.16 0  0.18 0.16 0  0.21 0.16 0  0.24 0.16 0  0.27 0.16 0  0.3 0.16 0  0.33 0.16 0  0.36 0.16 0  0.39 0.16 0  0.42 0.16 0  0.45 0.16 0  0.48 0.16 0  0.51 0.16 0  0.54 0.16 0  0.57 0.16 0  0.6 0.16 0  0.63 0.16 0  0.66 0.16 0  0.6899999999999999 0.16 0  0.72 0.16 0  0.75 0.16 0  0.78 0.16 0  0.8100000000000001 0.16 0  0.84 0.16 0  0.87 0.16 0  0.9 0.16 0  0.93 0.16 0  0.96 0.16 0  0.99 0.16 0  1.02 0.16 0  1.05 0.16 0  1.08 0.16 0  1.11 0.16 0  1.14 0.16 0  1.17 0.16 0  1.2 0.16 0  1.23 0.16 0  1.26 0.16 0  1.29 0.16 0  1.32 0.16 0  1.35 0.16 0  1.38 0.16 0  1.41 0.16 0  1.44 0.16 0  1.47 0.16 0  1.5 0.16 0  0 0.18 0  0.03 0.18 0  0.06 0.18 0  0.09 0.18 0  0.12 0.18 0  0.15 0.18 0  0.18 0.18 0  0.21 0.18 0  0.24 0.18 0  0.27 0.18 0  0.3 0.18 0  0.33 0.18 0  0.36 0.18 0  0.39 0.18 0  0.42 0.18 0  0.45 0.18 0  0.48 0.18 0  0.51 0.18 0  0.54 0.18 0  0.57 0.18 0  0.6 0.18 0  0.63 0.18 0  0.66 0.18 0  0.6899999999999999 0.18 0  0.72 0.18 0  0.75 0.18 0  0.78 0.18 0  0.8100000000000001 0.18 0  0.84 0.18 0  0.87 0.18 0  0.9 0.18 0  0.93 0.18 0  0.96 0.18 0  0.99 0.18 0  1.02 0.18 0  1.05 0.18 0  1.08 0.18 0  1.11 0.18 0  1.14 0.18 0  1.17 0.18 0  1.2 0.18 0  1.23 0.18 0  1.26 0.18 0  1.29 0.18 0  1.32 0.18 0  1.35 0.18 0  1.38 0.18 0  1.41 0.18 0  1.44 0.18 0  1.47 0.18 0  1.5 0.18 0  0 0.2 0  0.03 0.2 0  0.06 0.2 0  0.09 0.2 0  0.12 0.2 0  0.15 0.2 0  0.18 0.2 0  0.21 0.2 0  0.24 0.2 0  0.27 0.2 0  0.3 0.2 0  0.33 0.2 0  0.36 0.2 0  0.39 0.2 0  0.42 0.2 0  0.45 0.2 0  0.48 0.2 0  0.51 0.2 0  0.54 0.2 0  0.57 0.2 0  0.6 0.2 0  0.63 0.2 0  0.66 0.2 0  0.6899999999999999 0.2 0  0.72 0.2 0  0.75 0.2 0  0.78 0.2 0  0.8100000000000001 0.2 0  0.84 0.2 0  0.87 0.2 0  0.9 0.2 0  0.93 0.2 0  0.96 0.2 0  0.99 0.2 0  1.02 0.2 0  1.05 0.2 0  1.08 0.2 0  1.11 0.2 0  1.14 0.2 0  1.17 0.2 0  1.2 0.2 0  1.23 0.2 0  1.26 0.2 0  1.29 0.2 0  1.32 0.2 0  1.35 0.2 0  1.38 0.2 0  1.41 0.2 0  1.44 0.2 0  1.47 0.2 0  1.5 0.2 0  0 0.22 0  0.03 0.22 0  0.06 0.22 0  0.09 0.22 0  0.12 0.22 0  0.15 0.22 0  0.18 0.22 0  0.21 0.22 0  0.24 0.22 0  0.27 0.22 0  0.3 0.22 0  0.33 0.22 0  0.36 0.22 0  0.39 0.22 0  0.42 0.22 0  0.45 0.22 0  0.48 0.22 0  0.51 0.22 0  0.54 0.22 0  0.57 0.22 0  0.6 0.22 0  0.63 0.22 0  0.66 0.22 0  0.6899999999999999 0.22 0  0.72 0.22 0  0.75 0.22 0  0.78 0.22 0  0.8100000000000001 0.22 0  0.84 0.22 0  0.87 0.22 0  0.9 0.22 0  0.93 0.22 0  0.96 0.22 0  0.99 0.22 0  1.02 0.22 0  1.05 0.22 0  1.08 0.22 0  1.11 0.22 0  1.14 0.22 0  1.17 0.22 0  1.2 0.22 0  1.23 0.22 0  1.26 0.22 0  1.29 0.22 0  1.32 0.22 0  1.35 0.22 0  1.38 0.22 0  1.41 0.22 0  1.44 0.22 0  1.47 0.22 0  1.5 0.22 0  0 0.24 0  0.03 0.24 0  0.06 0.24 0  0.09 0.24 0  0.12 0.24 0  0.15 0.24 0  0.18 0.24 0  0.21 0.24 0  0.24 0.24 0  0.27 0.24 0  0.3 0.24 0  0.33 0.24 0  0.36 0.24 0  0.39 0.24 0  0.42 0.24 0  0.45 0.24 0  0.48 0.24 0  0.51 0.24 0  0.54 0.24 0  0.57 0.24 0  0.6 0.24 0  0.63 0.24 0  0.66 0.24 0  0.6899999999999999 0.24 0  0.72 0.24 0  0.75 0.24 0  0.78 0.24 0  0.8100000000000001 0.24 0  0.84 0.24 0  0.87 0.24 0  0.9 0.24 0  0.93 0.24 0  0.96 0.24 0  0.99 0.24 0  1.02 0.24 0  1.05 0.24 0  1.08 0.24 0  1.11 0.24 0  1.14 0.24 0  1.17 0.24 0  1.2 0.24 0  1.23 0.24 0  1.26 0.24 0  1.29 0.24 0  1.32 0.24 0  1.35 0.24 0  1.38 0.24 0  1.41 0.24 0  1.44 0.24 0  1.47 0.24 0  1.5 0.24 0  0 0.26 0  0.03 0.26 0  0.06 0.26 0  0.09 0.26 0  0.12 0.26 0  0.15 0.26 0  0.18 0.26 0  0.21 0.26 0  0.24 0.26 0  0.27 0.26 0  0.3 0.26 0  0.33 0.26 0  0.36 0.26 0  0.39 0.26 0  0.42 0.26 0  0.45 0.26 0  0.48 0.26 0  0.51 0.26 0  0.54 0.26 0  0.57 0.26 0  0.6 0.26 0  0.63 0.26 0  0.66 0.26 0  0.6899999999999999 0.26 0  0.72 0.26 0  0.75 0.26 0  0.78 0.26 0  0.8100000000000001 0.26 0  0.84 0.26 0  0.87 0.26 0  0.9 0.26 0  0.93 0.26 0  0.96 0.26 0  0.99 0.26 0  1.02 0.26 0  1.05 0.26 0  1.08 0.26 0  1.11 0.26 0  1.14 0.26 0  1.17 0.26 0  1.2 0.26 0  1.23 0.26 0  1.26 0.26 0  1.29 0.26 0  1.32 0.26 0  1.35 0.26 0  1.38 0.26 0  1.41 0.26 0  1.44 0.26 0  1.47 0.26 0  1.5 0.26 0  0 0.28 0  0.03 0.28 0  0.06 0.28 0  0.09 0.28 0  0.12 0.28 0  0.15 0.28 0  0.18 0.28 0  0.21 0.28 0  0.24 0.28 0  0.27 0.28 0  0.3 0.28 0  0.33 0.28 0  0.36 0.28 0  0.39 0.28 0  0.42 0.28 0  0.45 0.28 0  0.48 0.28 0  0.51 0.28 0  0.54 0.28 0  0.57 0.28 0  0.6 0.28 0  0.63 0.28 0  0.66 0.28 0  0.6899999999999999 0.28 0  0.72 0.28 0  0.75 0.28 0  0.78 0.28 0  0.8100000000000001 0.28 0  0.84 0.28 0  0.87 0.28 0  0.9 0.28 0  0.93 0.28 0  0.96 0.28 0  0.99 0.28 0  1.02 0.28
[...]
<PointData  Scalars="ControlVisualisation"> 
<DataArray  type="Float64"  Name="ControlVisualisation"  format="ascii">1.6607884157353853e-01  1.2043414576434719e-01  1.2048658445265725e-01  1.2061816858679417e-01  1.2082971009492262e-01  1.2109180448537919e-01  1.2136633596120155e-01  1.2162764750512133e-01  1.2186543289556086e-01  1.2207485215808796e-01  1.2224708022132383e-01  1.2237110814575552e-01  1.2244504452084062e-01  1.2248266508458021e-01  1.2250607330722653e-01  1.2253189045779296e-01  1.2256416658202329e-01  1.2259795033927381e-01  1.2262714129479477e-01  1.2264916525678173e-01  1.2266468476323357e-01  1.2267527632513897e-01  1.2268205550930616e-01  1.2268573127877185e-01  1.2268702986650921e-01  1.2268668706612117e-01  1.2268503161061847e-01  1.2268154704752757e-01  1.2267468661591617e-01  1.2266211660031674e-01  1.2264169565769650e-01  1.2261340518567242e-01  1.2258146529866079e-01  1.2255430023004626e-01  1.2253976270339415e-01  1.2253626022215591e-01  1.2252641521877609e-01  1.2248268658597247e-01  1.2238569283109703e-01  1.2223869857401787e-01  1.2206002677840094e-01  1.2186197001255986e-01  1.2164210215047408e-01  1.2139409569222445e-01  1.2112482718975819e-01  1.2086252938226534e-01  1.2064669490615215e-01  1.2050536187671375e-01  1.2043890162144653e-01  1.2042589252379107e-01  2.5387459424290693e-01  1.2043313939418095e-01  6.4800298608275700e-02  6.5120434490491527e-02  6.5843154555216055e-02  6.6982793384504663e-02  6.8381015435564352e-02  6.9830690908948015e-02  7.1203441328855865e-02  7.2471203220181885e-02  7.3629941484544131e-02  7.4619099501862879e-02  7.5331861807951872e-02  7.5707698324881431e-02  7.5801863691769486e-02  7.5757212954963557e-02  7.5710144798456183e-02  7.5719584447056024e-02  7.5770403801311018e-02  7.5824448822617241e-02  7.5860522443178965e-02  7.5878443540469714e-02  7.5884697260866760e-02  7.5883363100442636e-02  7.5877132585359955e-02  7.5870316719564665e-02  7.5868005852114895e-02  7.5872475105816045e-02  7.5880514941379970e-02  7.5883354382420359e-02  7.5868600179069226e-02  7.5824716425227687e-02  7.5750711570455792e-02  7.5669478750580707e-02  7.5631541113180517e-02  7.5689930280465917e-02  7.5843565423199116e-02  7.5986615890415610e-02  7.5930192081023432e-02  7.5518715775304571e-02  7.4752180991600636e-02  7.3781619049206867e-02  7.2767934098259282e-02  7.1750469002247422e-02  7.0650445158848246e-02  6.9383459060327377e-02  6.7985322129691633e-02  6.6645444681414728e-02  6.5607427667325718e-02  6.5003441871294670e-02  6.4761036433140268e-02  1.2042671316730559e-01  1.2046166930656513e-01  6.4964694894754316e-02  6.5698750019491409e-02  6.7288544172307785e-02  6.9780852558668532e-02  7.2798563427385776e-02  7.5843143918296191e-02  7.8618421509538253e-02  8.1115001096603426e-02  8.3412596285715235e-02  8.5423906944573511e-02  8.6881985432376449e-02  8.7592543041366724e-02  8.7654537162539140e-02  8.7415197899516517e-02  8.7222708537599100e-02  8.7221232836932727e-02  8.7353418706560604e-02  8.7504565517628502e-02  8.7614254415700060e-02  8.7682217925712180e-02  8.7723911367675933e-02  8.7745502494216393e-02  8.7749074971441299e-02  8.7742615029845289e-02  8.7738443753538814e-02  8.7743735286654495e-02  8.7753317349076043e-02  8.7749097627166150e-02  8.7703494702169954e-02  8.7586825126018883e-02  8.7387811329944554e-02  8.7150805808844448e-02  8.7001064795494215e-02  8.7100088666889161e-02  8.7501169140921375e-02  8.7987074945250099e-02  8.8085044648339883e-02  8.7363387230600997e-02  8.5792437904673544e-02  8.3779594369053675e-02  8.1783310505145604e-02  7.9906546341503695e-02  7.7887162793206038e-02  7.5411349667010380e-02  7.2474380075886025e-02  6.9489173003571783e-02  6.7057758698167921e-02  6.5568592005220652e-02  6.4905506398531265e-02  1.2043802383593395e-01  1.2052354861639572e-01  6.5280431410370252e-02  6.6688364420495333e-02  6.9414459316132437e-02  7.3386606284764608e-02  7.7887943167587570e-02  8.2097295615495433e-02  8.5580692050864035e-02  8.8422783193196380e-02  9.0894829353573917e-02  9.2994556265202880e-02  9.4386201314962878e-02  9.4805308261411064e-02  9.4420446392327481e-02  9.3763899796482794e-02  9.3334892696966557e-02  9.3282120975313965e-02  9.3444501228830107e-02  9.3614304228589185e-02  9.3709352515041922e-02  9.3751311822529423e-02  9.3773643812818830e-02  9.3782218994584984e-02  9.3772978580141053e-02  9.3753560612249931e-02  9.3741942548581869e-02  9.3751245823146367e-02  9.3778214979335903e-02  9.3801716783914635e-02  9.3785204473826322e-02  9.3680697719779257e-02  9.3451683014389511e-02  9.3133710056353305e-02  9.2900576259643014e-02  9.3034974950190974e-02  9.3713841296353004e-02  9.4701568158388094e-02  9.5298733431356586e-02  9.4799357065137646e-02  9.3118280952497579e-02  9.0883190567800767e-02  8.8771394077846427e-02  8.6839032278788225e-02  8.4598216484832428e-02  8.1507267420990959e-02  7.7467420688529326e-02  7.3005601580012736e-02  6.9053363535050885e-02  6.6428430101680480e-02  6.5158530890810737e-02  1.2048050618691389e-01  1.2061374881743790e-01  6.5900058688889304e-02  6.8903343801666392e-02  7.3837214945096763e-02  7.9803600370034491e-02  8.5801144489486378e-02  9.1183252620567312e-02  9.5378053302339033e-02  9.8256876461358611e-02  1.0024929233508717e-01  1.0161253274285195e-01  1.0209488139127901e-01  1.0145961556510302e-01  1.0001502195813035e-01  9.8524862203145686e-02  9.7632969250640189e-02  9.7419027178841752e-02  9.7527877410987465e-02  9.7613955088054094e-02  9.7582017485287151e-02  9.7501523231231388e-02  9.7435662590642375e-02  9.7385505731824237e-02  9.7332579527748334e-02  9.7279824723205621e-02  9.7250810432836191e-02  9.7267042704030679e-02  9.7331058078197558e-02  9.7423505329050891e-02  9.7503114245915110e-02  9.7501958319401755e-02  9.7342541298732377e-02  9.7022871425949703e-02  9.6750441013125354e-02  9.6973223638059908e-02  9.8100700956008147e-02  9.9968889215413290e-02  1.0162820401314097e-01  1.0199081226880742e-01  1.0083352107593097e-01  9.8998840655549758e-02  9.7312152554274736e-02  9.5674099221918094e-02  9.3652858819972221e-02  9.0627639387773296e-02  8.5921779118540140e-02  7.9788929571859901e-02  7.3422439668986955e-02  6.8346497273169562e-02  6.5612372684014264e-02  1.2055485603156745e-01  1.2072038410504414e-01  6.7539177578516421e-02  7.5876497796741757e-02  8.7770753598635412e-02  9.7354451864418712e-02  1.0195725206843485e-01  1.0374911084012320e-01  1.0625984067554030e-01  1.1008211627498282e-01  1.1294700618332100e-01  1.1362585383203226e-01  1.1231629254461552e-01  1.0948245580267196e-01  1.0595999570818422e-01  1.0291365715140173e-01  1.0114864819546192e-01  1.0056412767258210e-01  1.0047391141190756e-01  1.0032807258432269e-01  1.0002617466961619e-01  9.9715356013329287e-02  9.9496858710493213e-02  9.9352797520749853e-02  9.9234375479198139e-02  9.9132916511785185e-02  9.9077656549826643e-02  9.9101347180872601e-02  9.9216548426909537e-02  9.9411651119460390e-02  9.9647964207793510e-02  9.9841389913177245e-02  9.9862704224795776e-02  9.9640869869525570e-02  9.9393780730195974e-02  9.9794472704361925e-02  1.0165526875358723e-01  1.0502473000080630e-01  1.0863689231873047e-01  1.1074692613644391e-01  1.1062246469052785e-01  1.0903444271564704e-01  1.0725324491715812e-01  1.0703678463221934e-01  1.0900962001480663e-01  1.0979518867132854e-01  1.0600388944827907e-01  9.7491716498051301e-02  8.5429337972449587e-02  7.3752982205772449e-02  6.6590927834363059e-02  1.2063966050514745e-01  1.2085452892558639e-01  7.3145466028865999e-02  9.5101831705786052e-02  1.2146080416827726e-01  1.4320442887846377e-01  1.5190507188902080e-01  1.4285556487165316e-01  1.2861521125322323e-01  1.2226247624753192e-01  1.2431440660090190e-01  1.2834294559935627e-01  1.2708855901473218e-01  1.2143627504214005e-01  1.1446533946925766e-01  1.0868396962514559e-01  1.0532332156108457e-01  1.0396617474067187e-01  1.0338125396202015e-01  1.0272739295279797e-01  1.0192049470646553e-01  1.0122009618649939e-01  1.0076173430230753e-01  1.0047868446617600e-01  1.0026662407616058e-01  1.0009639168816729e-01  1.0000374438617053e-01  1.0003567623093521e-01  1.0021916570246046e-01  1.0055856194988291e-01  1.0103048388387902e-01  1.0154774896138379e-01  1.0192851434153673e-01  1.0199679928555774e-01  1.0193570996821505e-01  1.0270395543038369e-01  1.0576626949716865e-01  1.1159294563712928e-01  1.1835850008901941e-01  1.2277823151773082e-01  1.2241787463055923e-01  1.1947114271174167e-01  1.2130481465231382e-01  1.3043083147509066e-01  1.3744202398198027e-01  1.4629422567345746e-01  1.4685487819298013e-01  1.3880325432170476e-01  1.2313167018652785e-01  9.5576399993630143e-02  7.0815431075326368e-02  1.2064338875656802e-01  1.2434334731599117e-01  9.4195436660205578e-02  1.5487861078248649e-01  1.8765897262077474e-01  2.0168069931670440e-01  2.0987711119930405e-01  2.1022352718406156e-01  1.9473922746755717e-01  1.6189643487071342e-01  1.4450925229348210e-01  1.4175701298264881e-01  1.4307080761497235e-01  1.3812946906052995e-01  1.2807622506172581e-01  1.1840139418758691e-01  1.1232135148737359e-01  1.0942032847276716e-01  1.0772713816722472e-01  1.0600487373053127e-01  1.0424413266628915e-01  1.0287141009107710e-01  1.0202167456507168e-01  1.0151444847982929e-01  1.0115138152978539e-01  1.0087399033952026e-01  1.0072701774345133e-01  1.0077351094763454e-01  1.0105805878055700e-01  1.0161245252114826e-01  1.0245062889473103e-01  1.0351320316177214e-01  1.0458815363714988e-01  1.0536140959448494e-01  1.0589127531277588e-01  1.0742449348177383e-01  1.1237303202634298e-01  1.2170682454514867e-01  1.3206509329020916e-01  1.3687155647547555e-01  1.3383427080627899e-01  1.3617180491953496e-01  1.5436060086065406e-01  1.6432144113779590e-01  1.8508157313261284e-01  1.9391220778172730e-01  1.9272809228969129e-01  1.9315406674358884e-01  1.9676221400250324e-01  1.9350286348657100e-01  9.5241910479336084e-02  1.2029316454568018e-01  1.5475963877008519e-01  1.7957189763060047e-01  3.1383657528680087e-01  3.1809674424391571e-01  2.9246716085696156e-01  2.7077060780400874e-01  2.5623339537677925e-01  2.5026485010895627e-01  2.3873702205143060e-01  2.0539870241701952e-01  1.7771466290352247e-01  1.6389061068055721e-01  1.5319285459144211e-01  1.4382180933302005e-01  1.3360064281768563e-01  1.2498653583203419e-01  1.1961708339281077e-01  1.1574155457026589e-01  1.1195432540548983e-01  1.0839586005433738e-01  1.0580293745722148e-01  1.0425690809106292e-01  1.0334040627821567e-01  1.0269699972409500e-01  1.0223126076811224e-01  1.0200204107227531e-01  1.0208605836525428e-01  1.0254439725594079e-01  1.0345140131076482e-01  1.0489321695373557e-01  1.0689274054826264e-01  1.0927513981173866e-01  1.1159462233572194e-01  1.1354196942208981e-01  1.1622113253057162e-01  1.2295812087409493e-01  1.3549039748922564e-01  1.5019121987919906e-01  1.5882305847880951e-01  1.5988395881058018e-01  1.7875500976262104e-01  1.8760825497455039e-01  2.1702687083836006e-01  2.3801283391237624e-01  2.5411424273408062e-01  2.7209218657694834e-01  2.9087736445976037e-01  3.0719539903201376e-01  3.1824939488725912e-01  2.4205451829142072e-01  1.4378184991116977e-01  4.5206837135453026e-01  4.8955594323385060e-01  5.4641778473741776e-01  5.0165203935446390e-01  4.5026362565645817e-01  3.8741487219290327e-01  3.3403681136041197e-01  3.0031967749581823e-01  2.8346607777149058e-01  2.7279412737944275e-01  2.5268199061410301e-01  2.2347587092206750e-01  1.8232925835721883e-01  1.5522920928476772e-01  1.4365240259275008e-01  1.4098825739860932e-01  1.3669771840503869e-01  1.3060282751757424e-01  1.2334014786213379e-01  1.1672579769790781e-01  1.1195824800937137e-01  1.0910682466610459e-01  1.0737942653042572e-01  1.0617310723652228e-01  1.0534776033556315e-01  1.0498373359126117e-01  1.0516021944769118e-01  1.0594496461952724e-01  1.0747448188987714e-01  1.0995383588438518e-01  1.1354260455094034e-01  1.1816231292257390e-01  1.2314957362791538e-01  1.2684904897846047e-01  1.2798573166901922e-01  1.3341111727351079e-01  1.5343350852284832e-01  1.8225114229286327e-01  2.0034437440270941e-01  2.0799249411080309e-01  2.2148956282231755e-01  2.5004229997474797e-01  2.7902213508702611e-01  3.0342748621806659e-01  3.3495448073552320e-01  3.8331942320445767e-01  4.4143286595515635e-01  4.9496766589570595e-01  5.2515245846187253e-01  5.3426507825022129e-01  3.9490077879931634e-01  7.8594845020711834e-01  8.1505097153945172e-01  7.3981382112783456e-01  6.6834550935148107e-01  5.9870989402577368e-01  5.2519008122414179e-01  4.4897480728519717e-01  3.8250951065371613e-01  3.3448567771247578e-01  3.0571125370576446e-01  2.9131574921819942e-01  2.8330863235889864e-01  2.5329376528383235e-01  1.8461755206368796e-01  1.6941643328685979e-01  1.4627722518331163e-01  1.4854015834670981e-01  1.4819461991438543e-01  1.4077089360491452e-01  1.3128411219321512e-01  1.2370979511659072e-01  1.1885597716288182e-01  1.1571639924222578e-01  1.1347028369835530e-01  1.1198292164986459e-01  1.1137949872463990e-01  1.1171545939843527e-01  1.1302608937167363e-01  1.1549809197188338e-01  1.1943834687451559e-01  1.2500846130094295e-01  1.3184000789971462e-01  1.3791448919627258e-01  1.3708360768958142e-01  1.3012667603164901e-01  1.4962523054929039e-01  1.8918752981500803e-01  2.2238501058457913e-01  2.5525204972178711e-01  2.6316290925567376e-01  2.7733287487916269e-01  3.0627064720775665e-01  3.3835962855910284e-01  3.7846553446662040e-01  4.3993397465824674e-01  5.1444520125731141e-01  5.9207759969546125e-01  6.6000752432143739e-01  7.2918550694180140e-01  8.2631850090056647e-01  7.5531664855834291e-01  8.7881432499643575e-01  9.0555998494150447e-01  8.6194875152452233e-01  7.8257617700174031e-01  7.0379291918597620e-01  6.2548150662651014e-01  5.5176366687069112e-01  4.7808283918153216e-01  4.1112343980889765e-01  3.5677766685995710e-01  3.1751654638596916e-01  2.9943337827508820e-01  2.9769629928004959e-01  2.5780938896724126e-01  2.0723862380673874e-01  2.1206795097028003e-01  1.7711145165921369e-01  1.5625057858821201e-01  1.4634271577436814e-01  1.3934266479393495e-01  1.3368917757699844e-01  1.2940749738048660e-01  1.2602764213134154e-01  1.2311460295415452e-01  1.2098921063474927e-01  1.2005573694946428e-01  1.2033195998006116e-01  1.2165456114535901e-01  1.2406113868696093e-01  1.2784699662532750e-01  1.3339503251296969e-01  1.4089985634929963e-01  1.4865228664168967e-01  1.5239447863989616e-01  2.0246394434476700e-01  3.6951089408298599e-01  1.9859367637883646e-01  2.6006696361235754e-01  2.8370050156663157e-01  2.9299418416369089e-01  3.1839553111109625e-01  3.5671483031551304e-01  4.0234001198632252e-01  4.6505339645517280e-01  5.3963214250417546e-01  6.2086306954667536e-01  6.9758202812246350e-01  7.7551071587380405e-01  8.6065689909663368e-01  9.0904325908077133e-01  8.7119896833828248e-01  9.0309633598567307e-01  9.2951440086339931e-01  8.8971631080499181e-01  8.4561285468993697e-01  7.7247413236612572e-01  6.9534165055902952e-01  6.2256786464020186e-01  5.5547736035339634e-01  4.8829411367619857e-01  4.2574994539856581e-01  3.7116679058754432e-01  3.2733462756438347e-01  3.0723348357512775e-01  3.0861711022024430e-01  2.7413897773332346e-01  2.2660795535500078e-01  1.9326625402642422e-01  1.9005303069661322e-01  1.8874655975616944e-01  1.7201820220533987e-01  1.5399505491462356e-01  1.4508262987405005e-01  1.3972576237540116e-01  1.3564408533271474e-01  1.3295924934257020e-01  1.3204874545162268e-01  1.3261200206046125e-01  1.3441090712420459e-01  1.3824087201486551e-01  1.4573261146434005e-01  1.5796103349036714e-01  1.7368945103514977e-01  1.8846940023876430e-01  2.0046475288356333e-01  2.1211711995638283e-01  2.0315670001589642e-01  2.3857204145147465e-01  2.9263554092903094e-01  3.1052583856991439e-01  3.3189839426159162e-01  3.6785806976765184e-01  4.1540090402272478e-01  4.7579282393038663e-01  5.4363870269248016e-01  6.1699415163905147e-01  6.9041995167440440e-01  7.6045070946321291e-01  8.4085367200187600e-01  8.9282654290929997e-01  9.3040326211679136e-01  8.9965275337053208e-01  8.9985500469958712e-01  9.3162221519304389e-01  8.9496538985869634e-01  8.5000988024833068e-01  8.0197037312452435e-01  7.3745340581254948e-01  6.7109603566036324e-01  6.0958120987010156e-01  5.5121499580129207e-01  4.9081623986038653e-01  4.3327919319655550e-01  3.8164138540534165e-01  3.3723692500622360e-01  3.1414277209151203e-01  3.1523610597027385e-01  3.0215104125899522e-01  2.8028872119780635e-01  2.6916432809141777e-01  2.3756442191696259e-01  1.9792692771591891e-01  1.7855464524532622e-01  1.7350959338158936e-01  1.7070629908371288e-01  1.6576835143704877e-01  1.6136925977914202e-01  1.5984360506298728e-01  1.6089826730431914e-01  1.6366479738501813e-01  1.6876072476056597e-01  1.7772435858982041e-01  1.9220286072809481e-01  2.1291866527327086e-01  2.3479805531814929e-01  2.4978258443199430e-01  2.5910609855546007e-01  2.7646608162377090e-01  3.0224692315476420e-01  3.2541112855902238e-01  3.4852397350631947e-01  3.8131950172882528e-01  4.2701611398469841e-01  4.8167739163041184e-01  5.4056903656128508e-01  6.0194174249564936e-01  6.6555194388817096e-01  7.2615314155443544e-01  7.9365308695613457e-01  8.4872481097489061e-01  8.9380794232252658e-01  9.3079995044087527e-01  9.0323085718631679e-01  8.6853088638643872e-01  9.1122006606116124e-01  8.7358960276816944e-01  8.3173455147697650e-01  7.9271699256573847e-01  7.4744880006768877e-01  6.9539659686665867e-01  6.4269570451538149e-01  5.9363890156152188e-01  5.4433484940777133e-01  4.9135491499580281e-01  4.3871945488406860e-01  3.9077223420398804e-01  3.4907594938221137e-01  3.2225176784094034e-01  3.1294690834483285e-01  3.0389873457523631e-01  2.9156971131189069e-01  2.8241856729295067e-01  2.6786698443289303e-01  2.4738129847120610e-01  2.3238190471433953e-01  2.2418657000324974e-01  2.1732433476649657e-01  2.1172894360587199e-01  2.0927988018595822e-01  2.1066161228892707e-01  2.1512467147155376e-01  2.2196244609187199e-01  2.3134758697468455e-01  2.4391518652848646e-01  2.5982826212005133e-01  2.7750123324114939e-01  2.9285667006360200e-01  3.0336217846787239e-01  3.1546792213176855e-01  3.3638981233790022e-01  3.6123108224752609e-01  3.9288783028441365e-01  4.3657149235958920e-01  4.8603619977870566e-01  5.3632760961956794e-01  5.8615642319832495e-01  6.3616221335478096e-01  6.8553615731854889e-01  7.3802490212947602e-01  7.8933806117137606e-01  8.3012472429487683e-01  8.6968150488170137e-01  9.0860514754277055e-01  8.7931073597192211e-01  7.4815419848594322e-01  8.4726392988340493e-01  8.1097187342418864e-01  7.8479460906016241e-01  7.5885458392157301e-01  7.2955063501663531e-01  6.9384267740689620e-01  6.5469442358344332e-01  6.1603922283646684e-01  5.7824135148567291e-01  5.3810818917371550e-01  4.9321106719349583e-01  4.4682162481881360e-01  4.0491461497394543e-01  3.7050240059613360e-01  3.4559477948621165e-01  3.2836764201975643e-01  3.1177376247005145e-01  2.9497396610219428e-01  2.8186370505949737e-01  2.7108786762536785e-01  2.5930837592528039e-01  2.4851396208088433e-01  2.4147492016382127e-01  2.3819561644871939e-01  2.3787608256935955e-01  2.4009306526314814e-01  2.4490666498693786e-01  2.5201257911517055e-01  2.6060447974003770e-01  2.7047706467477955e-01  2.8250075344064118e-01  2.9709128663624618e-01  3.1359116081848853e-01  3.3141099650867240e-01  3.5056883446211190e-01  3.7364349448793682e-01  4.0577102018787575e-01  4.4626339564815021e-01  4.9004102320670173e-01  5.3276168067942775e-01  5.7273990120958118e-01  6.1070679325542665e-01  6.4712650860306586e-01  6.8426522921670396e-01  7.2254035466638866e-01  7.5725423555649041e-01  7.8663271676246416e-01  8.1346017288352290e-01  8.3609524799850832e-01  7.8437362270613697e-01  3.8823348587451650e-01  5.9598130765443214e-01  6.5889923447869225e-01  6.9100606022857880e-01  6.9855273713301325e-01  6.8974649074032945e-01  6.7063723216014237e-01  6.4648945376580080e-01  6.2017668691633998e-01  5.9327564503464714e-01  5.6578797747336129e-01  5.3559882009502968e-01  5.009292410