<?xml version="1.0"?>
<VTKFile type="UnstructuredGrid"  version="0.1"  >
<UnstructuredGrid>
<Piece  NumberOfPoints="2601" NumberOfCells="5000">
<Points>
<DataArray  type="Float64"  NumberOfComponents="3"  format="ascii">0 0 0  0.03 0 0  0.06 0 0  0.09 0 0  0.12 0 0  0.15 0 0  0.18 0 0  0.21 0 0  0.24 0 0  0.27 0 0  0.3 0 0  0.33 0 0  0.36 0 0  0.39 0 0  0.42 0 0  0.45 0 0  0.48 0 0  0.51 0 0  0.54 0 0  0.57 0 0  0.6 0 0  0.63 0 0  0.66 0 0  0.6899999999999999 0 0  0.72 0 0  0.75 0 0  0.78 0 0  0.8100000000000001 0 0  0.84 0 0  0.87 0 0  0.9 0 0  0.93 0 0  0.96 0 0  0.99 0 0  1.02 0 0  1.05 0 0  1.08 0 0  1.11 0 0  1.14 0 0  1.17 0 0  1.2 0 0  1.23 0 0  1.26 0 0  1.29 0 0  1.32 0 0  1.35 0 0  1.38 0 0  1.41 0 0  1.44 0 0  1.47 0 0  1.5 0 0  0 0.02 0  0.03 0.02 0  0.06 0.02 0  0.09 0.02 0  0.12 0.02 0  0.15 0.02 0  0.18 0.02 0  0.21 0.02 0  0.24 0.02 0  0.27 0.02 0  0.3 0.02 0  0.33 0.02 0  0.36 0.02 0  0.39 0.02 0  0.42 0.02 0  0.45 0.02 0  0.48 0.02 0  0.51 0.02 0  0.54 0.02 0  0.57 0.02 0  0.6 0.02 0  0.63 0.02 0  0.66 0.02 0  0.6899999999999999 0.02 0  0.72 0.02 0  0.75 0.02 0  0.78 0.02 0  0.8100000000000001 0.02 0  0.84 0.02 0  0.87 0.02 0  0.9 0.02 0  0.93 0.02 0  0.96 0.02 0  0.99 0.02 0  1.02 0.02 0  1.05 0.02 0  1.08 0.02 0  1.11 0.02 0  1.14 0.02 0  1.17 0.02 0  1.2 0.02 0  1.23 0.02 0  1.26 0.02 0  1.29 0.02 0  1.32 0.02 0  1.35 0.02 0  1.38 0.02 0  1.41 0.02 0  1.44 0.02 0  1.47 0.02 0  1.5 0.02 0  0 0.04 0  0.03 0.04 0  0.06 0.04 0  0.09 0.04 0  0.12 0.04 0  0.15 0.04 0  0.18 0.04 0  0.21 0.04 0  0.24 0.04 0  0.27 0.04 0  0.3 0.04 0  0.33 0.04 0  0.36 0.04 0  0.39 0.04 0  0.42 0.04 0  0.45 0.04 0  0.48 0.04 0  0.51 0.04 0  0.54 0.04 0  0.57 0.04 0  0.6 0.04 0  0.63 0.04 0  0.66 0.04 0  0.6899999999999999 0.04 0  0.72 0.04 0  0.75 0.04 0  0.78 0.04 0  0.8100000000000001 0.04 0  0.84 0.04 0  0.87 0.04 0  0.9 0.04 0  0.93 0.04 0  0.96 0.04 0  0.99 0.04 0  1.02 0.04 0  1.05 0.04 0  1.08 0.04 0  1.11 0.04 0  1.14 0.04 0  1.17 0.04 0  1.2 0.04 0  1.23 0.04 0  1.26 0.04 0  1.29 0.04 0  1.32 0.04 0  1.35 0.04 0  1.38 0.04 0  1.41 0.04 0  1.44 0.04 0  1.47 0.04 0  1.5 0.04 0  0 0.06 0  0.03 0.06 0  0.06 0.06 0  0.09 0.06 0  0.12 0.06 0  0.15 0.06 0  0.18 0.06 0  0.21 0.06 0  0.24 0.06 0  0.27 0.06 0  0.3 0.06 0  0.33 0.06 0  0.36 0.06 0  0.39 0.06 0  0.42 0.06 0  0.45 0.06 0  0.48 0.06 0  0.51 0.06 0  0.54 0.06 0  0.57 0.06 0  0.6 0.06 0  0.63 0.06 0  0.66 0.06 0  0.6899999999999999 0.06 0  0.72 0.06 0  0.75 0.06 0  0.78 0.06 0  0.8100000000000001 0.06 0  0.84 0.06 0  0.87 0.06 0  0.9 0.06 0  0.93 0.06 0  0.96 0.06 0  0.99 0.06 0  1.02 0.06 0  1.05 0.06 0  1.08 0.06 0  1.11 0.06 0  1.14 0.06 0  1.17 0.06 0  1.2 0.06 0  1.23 0.06 0  1.26 0.06 0  1.29 0.06 0  1.32 0.06 0  1.35 0.06 0  1.38 0.06 0  1.41 0.06 0  1.44 0.06 0  1.47 0.06 0  1.5 0.06 0  0 0.08 0  0.03 0.08 0  0.06 0.08 0  0.09 0.08 0  0.12 0.08 0  0.15 0.08 0  0.18 0.08 0  0.21 0.08 0  0.24 0.08 0  0.27 0.08 0  0.3 0.08 0  0.33 0.08 0  0.36 0.08 0  0.39 0.08 0  0.42 0.08 0  0.45 0.08 0  0.48 0.08 0  0.51 0.08 0  0.54 0.08 0  0.57 0.08 0  0.6 0.08 0  0.63 0.08 0  0.66 0.08 0  0.6899999999999999 0.08 0  0.72 0.08 0  0.75 0.08 0  0.78 0.08 0  0.8100000000000001 0.08 0  0.84 0.08 0  0.87 0.08 0  0.9 0.08 0  0.93 0.08 0  0.96 0.08 0  0.99 0.08 0  1.02 0.08 0  1.05 0.08 0  1.08 0.08 0  1.11 0.08 0  1.14 0.08 0  1.17 0.08 0  1.2 0.08 0  1.23 0.08 0  1.26 0.08 0  1.29 0.08 0  1.32 0.08 0  1.35 0.08 0  1.38 0.08 0  1.41 0.08 0  1.44 0.08 0  1.47 0.08 0  1.5 0.08 0  0 0.1 0  0.03 0.1 0  0.06 0.1 0  0.09 0.1 0  0.12 0.1 0  0.15 0.1 0  0.18 0.1 0  0.21 0.1 0  0.24 0.1 0  0.27 0.1 0  0.3 0.1 0  0.33 0.1 0  0.36 0.1 0  0.39 0.1 0  0.42 0.1 0  0.45 0.1 0  0.48 0.1 0  0.51 0.1 0  0.54 0.1 0  0.57 0.1 0  0.6 0.1 0  0.63 0.1 0  0.66 0.1 0  0.6899999999999999 0.1 0  0.72 0.1 0  0.75 0.1 0  0.78 0.1 0  0.8100000000000001 0.1 0  0.84 0.1 0  0.87 0.1 0  0.9 0.1 0  0.93 0.1 0  0.96 0.1 0  0.99 0.1 0  1.02 0.1 0  1.05 0.1 0  1.08 0.1 0  1.11 0.1 0  1.14 0.1 0  1.17 0.1 0  1.2 0.1 0  1.23 0.1 0  1.26 0.1 0  1.29 0.1 0  1.32 0.1 0  1.35 0.1 0  1.38 0.1 0  1.41 0.1 0  1.44 0.1 0  1.47 0.1 0  1.5 0.1 0  0 0.12 0  0.03 0.12 0  0.06 0.12 0  0.09 0.12 0  0.12 0.12 0  0.15 0.12 0  0.18 0.12 0  0.21 0.12 0  0.24 0.12 0  0.27 0.12 0  0.3 0.12 0  0.33 0.12 0  0.36 0.12 0  0.39 0.12 0  0.42 0.12 0  0.45 0.12 0  0.48 0.12 0  0.51 0.12 0  0.54 0.12 0  0.57 0.12 0  0.6 0.12 0  0.63 0.12 0  0.66 0.12 0  0.6899999999999999 0.12 0  0.72 0.12 0  0.75 0.12 0  0.78 0.12 0  0.8100000000000001 0.12 0  0.84 0.12 0  0.87 0.12 0  0.9 0.12 0  0.93 0.12 0  0.96 0.12 0  0.99 0.12 0  1.02 0.12 0  1.05 0.12 0  1.08 0.12 0  1.11 0.12 0  1.14 0.12 0  1.17 0.12 0  1.2 0.12 0  1.23 0.12 0  1.26 0.12 0  1.29 0.12 0  1.32 0.12 0  1.35 0.12 0  1.38 0.12 0  1.41 0.12 0  1.44 0.12 0  1.47 0.12 0  1.5 0.12 0  0 0.14 0  0.03 0.14 0  0.06 0.14 0  0.09 0.14 0  0.12 0.14 0  0.15 0.14 0  0.18 0.14 0  0.21 0.14 0  0.24 0.14 0  0.27 0.14 0  0.3 0.14 0  0.33 0.14 0  0.36 0.14 0  0.39 0.14 0  0.42 0.14 0  0.45 0.14 0  0.48 0.14 0  0.51 0.14 0  0.54 0.14 0  0.57 0.14 0  0.6 0.14 0  0.63 0.14 0  0.66 0.14 0  0.6899999999999999 0.14 0  0.72 0.14 0  0.75 0.14 0  0.78 0.14 0  0.8100000000000001 0.14 0  0.84 0.14 0  0.87 0.14 0  0.9 0.14 0  0.93 0.14 0  0.96 0.14 0  0.99 0.14 0  1.02 0.14 0  1.05 0.14 0  1.08 0.14 0  1.11 0.14 0  1.14 0.14 0  1.17 0.14 0  1.2 0.14 0  1.23 0.14 0  1.26 0.14 0  1.29 0.14 0  1.32 0.14 0  1.35 0.14 0  1.38 0.14 0  1.41 0.14 0  1.44 0.14 0  1.47 0.14 0  1.5 0.14 0  0 0.16 0  0.03 0.16 0  0.06 0.16 0  0.09 0.16 0  0.12 0.16 0  0.15 0.16 0  0.18 0.16 0  0.21 0.16 0  0.24 0.16 0  0.27 0.16 0  0.3 0.16 0  0.33 0.16 0  0.36 0.16 0  0.39 0.16 0  0.42 0.16 0  0.45 0.16 0  0.48 0.16 0  0.51 0.16 0  0.54 0.16 0  0.57 0.16 0  0.6 0.16 0  0.63 0.16 0  0.66 0.16 0  0.6899999999999999 0.16 0  0.72 0.16 0  0.75 0.16 0  0.78 0.16 0  0.8100000000000001 0.16 0  0.84 0.16 0  0.87 0.16 0  0.9 0.16 0  0.93 0.16 0  0.96 0.16 0  0.99 0.16 0  1.02 0.16 0  1.05 0.16 0  1.08 0.16 0  1.11 0.16 0  1.14 0.16 0  1.17 0.16 0  1.2 0.16 0  1.23 0.16 0  1.26 0.16 0  1.29 0.16 0  1.32 0.16 0  1.35 0.16 0  1.38 0.16 0  1.41 0.16 0  1.44 0.16 0  1.47 0.16 0  1.5 0.16 0  0 0.18 0  0.03 0.18 0  0.06 0.18 0  0.09 0.18 0  0.12 0.18 0  0.15 0.18 0  0.18 0.18 0  0.21 0.18 0  0.24 0.18 0  0.27 0.18 0  0.3 0.18 0  0.33 0.18 0  0.36 0.18 0  0.39 0.18 0  0.42 0.18 0  0.45 0.18 0  0.48 0.18 0  0.51 0.18 0  0.54 0.18 0  0.57 0.18 0  0.6 0.18 0  0.63 0.18 0  0.66 0.18 0  0.6899999999999999 0.18 0  0.72 0.18 0  0.75 0.18 0  0.78 0.18 0  0.8100000000000001 0.18 0  0.84 0.18 0  0.87 0.18 0  0.9 0.18 0  0.93 0.18 0  0.96 0.18 0  0.99 0.18 0  1.02 0.18 0  1.05 0.18 0  1.08 0.18 0  1.11 0.18 0  1.14 0.18 0  1.17 0.18 0  1.2 0.18 0  1.23 0.18 0  1.26 0.18 0  1.29 0.18 0  1.32 0.18 0  1.35 0.18 0  1.38 0.18 0  1.41 0.18 0  1.44 0.18 0  1.47 0.18 0  1.5 0.18 0  0 0.2 0  0.03 0.2 0  0.06 0.2 0  0.09 0.2 0  0.12 0.2 0  0.15 0.2 0  0.18 0.2 0  0.21 0.2 0  0.24 0.2 0  0.27 0.2 0  0.3 0.2 0  0.33 0.2 0  0.36 0.2 0  0.39 0.2 0  0.42 0.2 0  0.45 0.2 0  0.48 0.2 0  0.51 0.2 0  0.54 0.2 0  0.57 0.2 0  0.6 0.2 0  0.63 0.2 0  0.66 0.2 0  0.6899999999999999 0.2 0  0.72 0.2 0  0.75 0.2 0  0.78 0.2 0  0.8100000000000001 0.2 0  0.84 0.2 0  0.87 0.2 0  0.9 0.2 0  0.93 0.2 0  0.96 0.2 0  0.99 0.2 0  1.02 0.2 0  1.05 0.2 0  1.08 0.2 0  1.11 0.2 0  1.14 0.2 0  1.17 0.2 0  1.2 0.2 0  1.23 0.2 0  1.26 0.2 0  1.29 0.2 0  1.32 0.2 0  1.35 0.2 0  1.38 0.2 0  1.41 0.2 0  1.44 0.2 0  1.47 0.2 0  1.5 0.2 0  0 0.22 0  0.03 0.22 0  0.06 0.22 0  0.09 0.22 0  0.12 0.22 0  0.15 0.22 0  0.18 0.22 0  0.21 0.22 0  0.24 0.22 0  0.27 0.22 0  0.3 0.22 0  0.33 0.22 0  0.36 0.22 0  0.39 0.22 0  0.42 0.22 0  0.45 0.22 0  0.48 0.22 0  0.51 0.22 0  0.54 0.22 0  0.57 0.22 0  0.6 0.22 0  0.63 0.22 0  0.66 0.22 0  0.6899999999999999 0.22 0  0.72 0.22 0  0.75 0.22 0  0.78 0.22 0  0.8100000000000001 0.22 0  0.84 0.22 0  0.87 0.22 0  0.9 0.22 0  0.93 0.22 0  0.96 0.22 0  0.99 0.22 0  1.02 0.22 0  1.05 0.22 0  1.08 0.22 0  1.11 0.22 0  1.14 0.22 0  1.17 0.22 0  1.2 0.22 0  1.23 0.22 0  1.26 0.22 0  1.29 0.22 0  1.32 0.22 0  1.35 0.22 0  1.38 0.22 0  1.41 0.22 0  1.44 0.22 0  1.47 0.22 0  1.5 0.22 0  0 0.24 0  0.03 0.24 0  0.06 0.24 0  0.09 0.24 0  0.12 0.24 0  0.15 0.24 0  0.18 0.24 0  0.21 0.24 0  0.24 0.24 0  0.27 0.24 0  0.3 0.24 0  0.33 0.24 0  0.36 0.24 0  0.39 0.24 0  0.42 0.24 0  0.45 0.24 0  0.48 0.24 0  0.51 0.24 0  0.54 0.24 0  0.57 0.24 0  0.6 0.24 0  0.63 0.24 0  0.66 0.24 0  0.6899999999999999 0.24 0  0.72 0.24 0  0.75 0.24 0  0.78 0.24 0  0.8100000000000001 0.24 0  0.84 0.24 0  0.87 0.24 0  0.9 0.24 0  0.93 0.24 0  0.96 0.24 0  0.99 0.24 0  1.02 0.24 0  1.05 0.24 0  1.08 0.24 0  1.11 0.24 0  1.14 0.24 0  1.17 0.24 0  1.2 0.24 0  1.23 0.24 0  1.26 0.24 0  1.29 0.24 0  1.32 0.24 0  1.35 0.24 0  1.38 0.24 0  1.41 0.24 0  1.44 0.24 0  1.47 0.24 0  1.5 0.24 0  0 0.26 0  0.03 0.26 0  0.06 0.26 0  0.09 0.26 0  0.12 0.26 0  0.15 0.26 0  0.18 0.26 0  0.21 0.26 0  0.24 0.26 0  0.27 0.26 0  0.3 0.26 0  0.33 0.26 0  0.36 0.26 0  0.39 0.26 0  0.42 0.26 0  0.45 0.26 0  0.48 0.26 0  0.51 0.26 0  0.54 0.26 0  0.57 0.26 0  0.6 0.26 0  0.63 0.26 0  0.66 0.26 0  0.6899999999999999 0.26 0  0.72 0.26 0  0.75 0.26 0  0.78 0.26 0  0.8100000000000001 0.26 0  0.84 0.26 0  0.87 0.26 0  0.9 0.26 0  0.93 0.26 0  0.96 0.26 0  0.99 0.26 0  1.02 0.26 0  1.05 0.26 0  1.08 0.26 0  1.11 0.26 0  1.14 0.26 0  1.17 0.26 0  1.2 0.26 0  1.23 0.26 0  1.26 0.26 0  1.29 0.26 0  1.32 0.26 0  1.35 0.26 0  1.38 0.26 0  1.41 0.26 0  1.44 0.26 0  1.47 0.26 0  1.5 0.26 0  0 0.28 0  0.03 0.28 0  0.06 0.28 0  0.09 0.28 0  0.12 0.28 0  0.15 0.28 0  0.18 0.28 0  0.21 0.28 0  0.24 0.28 0  0.27 0.28 0  0.3 0.28 0  0.33 0.28 0  0.36 0.28 0  0.39 0.28 0  0.42 0.28 0  0.45 0.28 0  0.48 0.28 0  0.51 0.28 0  0.54 0.28 0  0.57 0.28 0  0.6 0.28 0  0.63 0.28 0  0.66 0.28 0  0.6899999999999999 0.28 0  0.72 0.28 0  0.75 0.28 0  0.78 0.28 0  0.8100000000000001 0.28 0  0.84 0.28 0  0.87 0.28 0  0.9 0.28 0  0.93 0.28 0  0.96 0.28 0  0.99 0.28 0  1.02 0.28
[...]
<PointData  Scalars="ControlVisualisation"> 
<DataArray  type="Float64"  Name="ControlVisualisation"  format="ascii">1.9135296875388492e-05  1.2768001811739068e-05  1.2815676176080798e-05  1.2913674448512315e-05  1.3064639414206018e-05  1.3252493820927901e-05  1.3451258422130793e-05  1.3636264134640727e-05  1.3790837593217141e-05  1.3907576490219190e-05  1.3986020143398366e-05  1.4029764642794888e-05  1.4044514085506588e-05  1.4036842352497014e-05  1.4013270920175651e-05  1.3979635108825939e-05  1.3940776306683969e-05  1.3900483829328556e-05  1.3861569620219906e-05  1.3826001475563688e-05  1.3795064853007758e-05  1.3769536410482501e-05  1.3749848549164743e-05  1.3736224122484760e-05  1.3728770168088726e-05  1.3727532481631317e-05  1.3732520620662614e-05  1.3743712081701342e-05  1.3761037109295528e-05  1.3784337208905891e-05  1.3813286790150992e-05  1.3847272266008739e-05  1.3885235139741423e-05  1.3925497164354564e-05  1.3965589806247939e-05  1.4002108522565533e-05  1.4030622286505080e-05  1.4045694173479698e-05  1.4041094945563225e-05  1.4010275044251346e-05  1.3947053330626066e-05  1.3846667390102434e-05  1.3707560947740551e-05  1.3533975794362083e-05  1.3338754350519899e-05  1.3143302472956112e-05  1.2973498548542133e-05  1.2851564285496323e-05  1.2783977887092817e-05  1.2757445284651401e-05  3.8259175902541909e-05  1.2760608506307718e-05  6.3871648136450958e-06  6.4333002879202087e-06  6.5358911125242129e-06  6.7047580252446928e-06  6.9293198708874908e-06  7.1834009597262083e-06  7.4355911397845708e-06  7.6589743177443943e-06  7.8367482661311150e-06  7.9623748980456682e-06  8.0369828643749256e-06  8.0667667014722910e-06  8.0607952805755612e-06  8.0290254189361622e-06  7.9807672605343966e-06  7.9238419913152477e-06  7.8643324562450994e-06  7.8066718686246777e-06  7.7538795992932265e-06  7.7078534099055445e-06  7.6696743801635073e-06  7.6398884259033989e-06  7.6187330055748683e-06  7.6062936667713904e-06  7.6025953058633791e-06  7.6076454126625922e-06  7.6214459039593603e-06  7.6439790848537575e-06  7.6751588822455391e-06  7.7147290910165906e-06  7.7620927464510251e-06  7.8160718275175642e-06  7.8746169208118340e-06  7.9344994010546445e-06  7.9910214468047595e-06  8.0378049581410394e-06  8.0667743206005316e-06  8.0685464797420005e-06  8.0333533511678031e-06  7.9524561254741145e-06  7.8199779869773778e-06  7.6355283374250443e-06  7.4069164920363922e-06  7.1526987144172285e-06  6.9007439437152775e-06  6.6814045896592395e-06  6.5197234855757969e-06  6.4250620864341675e-06  6.3844673427174241e-06  1.2755928002867561e-05  1.2774944692661447e-05  6.4017080056083409e-06  6.4615251611419178e-06  6.5921152044636807e-06  6.8026786314768188e-06  7.0785678211003373e-06  7.3892064705898546e-06  7.6971485237897578e-06  7.9696472268935239e-06  8.1863393202074021e-06  8.3388596094968164e-06  8.4277152075860659e-06  8.4600149871825023e-06  8.4471594944750771e-06  8.4020426417511210e-06  8.3367343303402971e-06  8.2612797200584962e-06  8.1834018945264892e-06  8.1086510793472717e-06  8.0407239435278185e-06  7.9818540054960001e-06  7.9332277644730027e-06  7.8953730391098119e-06  7.8684668491663908e-06  7.8525383059635526e-06  7.8475776169494826e-06  7.8535825373580283e-06  7.8705711579210373e-06  7.8985708702726553e-06  7.9375689471267180e-06  7.9873931287030158e-06  8.0474926345876365e-06  8.1166144403972790e-06  8.1924086369709328e-06  8.2710106220261190e-06  8.3466419780095108e-06  8.4113019585837996e-06  8.4546888076326365e-06  8.4647248323698204e-06  8.4287987016390194e-06  8.3360144102232938e-06  8.1791507183439832e-06  7.9578626713195689e-06  7.6809432193298649e-06  7.3704100095313183e-06  7.0609763993757670e-06  6.7875671285809988e-06  6.5794564429227997e-06  6.4533444652255466e-06  6.3983743757736768e-06  1.2766262036925027e-05  1.2788929527019146e-05  6.4226421577503692e-06  6.5062499540614127e-06  6.6698181893246524e-06  6.9097309733574899e-06  7.2050237869396773e-06  7.5258943910021073e-06  7.8332363598075427e-06  8.0959695236734968e-06  8.2991768768833042e-06  8.4378318327149909e-06  8.5129290581143702e-06  8.5316365947609483e-06  8.5059582517581307e-06  8.4494378922091398e-06  8.3744174514801556e-06  8.2909195603252839e-06  8.2065536559852116e-06  8.1267417714294479e-06  8.0550188304707283e-06  7.9934057396519860e-06  7.9428515821141188e-06  7.9036717010005870e-06  7.8758917563077758e-06  7.8594556056055164e-06  7.8543164605224172e-06  7.8604626256861092e-06  7.8779231910133776e-06  7.9067688861883186e-06  7.9470855547300099e-06  7.9988699789463898e-06  8.0617994143885521e-06  8.1348659585440452e-06  8.2159373522962916e-06  8.3013180182147631e-06  8.3853712628682591e-06  8.4601816699637882e-06  8.5153490320716526e-06  8.5383957823338966e-06  8.5162534982874988e-06  8.4384941540274434e-06  8.2969188257277031e-06  8.0893011639316328e-06  7.8212673075104247e-06  7.5087731335070084e-06  7.1886511518669440e-06  6.8947624495862511e-06  6.6531479385896433e-06  6.4911345053988573e-06  6.4149956459354545e-06  1.2780804329611547e-05  1.2786397276005244e-05  6.4485694329159785e-06  6.5962347841735397e-06  6.8311422562940421e-06  7.1089537756376165e-06  7.4166104061360277e-06  7.7398090581368835e-06  8.0303736576337711e-06  8.2640922644827081e-06  8.4384261041694076e-06  8.5518035280508831e-06  8.6036960252571429e-06  8.6005778599327092e-06  8.5554377716880899e-06  8.4826721895109683e-06  8.3946142843873911e-06  8.3008573775551796e-06  8.2086041105929065e-06  8.1229684376944388e-06  8.0471765696224869e-06  7.9828756693861310e-06  7.9306132287792729e-06  7.8903611535692162e-06  7.8619173005180197e-06  7.8451116183315330e-06  7.8398565503457837e-06  7.8461310800719159e-06  7.8639720774836277e-06  7.8934974050871645e-06  7.9349252187000624e-06  7.9885058895188665e-06  8.0542808678608509e-06  8.1316469779071332e-06  8.2188326645874808e-06  8.3124643701927565e-06  8.4072703520392540e-06  8.4956295931107315e-06  8.5673402532879907e-06  8.6096067203759322e-06  8.6094106950529917e-06  8.5561999239186582e-06  8.4415730677545941e-06  8.2623728467287158e-06  8.0272157798378669e-06  7.7258677982579405e-06  7.4035881563659449e-06  7.1026810529700934e-06  6.8157766919393403e-06  6.5721085103107297e-06  6.4290353571365087e-06  1.2786222153928577e-05  1.2789780688901885e-05  6.5187023420995223e-06  6.9627999638067257e-06  7.5791397963818881e-06  7.8719858354210632e-06  7.9989565001014256e-06  8.1638165429591917e-06  8.3421412413625514e-06  8.5007678717145553e-06  8.6260661468481342e-06  8.7043794069412180e-06  8.7243935085833961e-06  8.6905745944734739e-06  8.6183890169027680e-06  8.5237254596948274e-06  8.4184726197792820e-06  8.3112896860938491e-06  8.2087515118707999e-06  8.1156052489822493e-06  8.0346978735382951e-06  7.9671466333621485e-06  7.9128989036839148e-06  7.8714234194422487e-06  7.8422108291528186e-06  7.8249643690723708e-06  7.8195694141872128e-06  7.8260019374295404e-06  7.8442939700325341e-06  7.8745956395023133e-06  7.9172787234308056e-06  7.9729419609943829e-06  8.0421630708384135e-06  8.1249414524631550e-06  8.2199918335817418e-06  8.3243763993964266e-06  8.4332303015112485e-06  8.5394960652188629e-06  8.6340224191531604e-06  8.7029164774677897e-06  8.7323129308554536e-06  8.7086002863706467e-06  8.6474007200370616e-06  8.5299628069451266e-06  8.4157653578112225e-06  8.2666359732562661e-06  8.1467911470708203e-06  7.9804254055693912e-06  7.3994681203804563e-06  6.7790748577787830e-06  6.4510419354823284e-06  1.2775278287769853e-05  1.3254868356173588e-05  7.0517363708204812e-06  9.6598405009671483e-06  1.6993814418091676e-05  2.2072668984992011e-05  1.5542508039769973e-05  1.1143633106490220e-05  9.3620502660185978e-06  8.9032641592932327e-06  8.8809031084559636e-06  8.9035013575625088e-06  8.8804308750257676e-06  8.8041028814740334e-06  8.6956561718786027e-06  8.5731560384092045e-06  8.4465841457840104e-06  8.3227667672125396e-06  8.2074485328554980e-06  8.1050717444501410e-06  8.0180953171472840e-06  7.9469036589596727e-06  7.8905542965334068e-06  7.8477963137321780e-06  7.8177349001141823e-06  7.7999685697923219e-06  7.7944030555176337e-06  7.8010293094156821e-06  7.8198448441024178e-06  7.8509796676089472e-06  7.8949491314215548e-06  7.9528056952190456e-06  8.0259029654410138e-06  8.1151430726748616e-06  8.2198416714480666e-06  8.3375039559152626e-06  8.4636439482570748e-06  8.5930084246871366e-06  8.7172622702092240e-06  8.8199877727324247e-06  8.8903423492285706e-06  8.9168365671336517e-06  8.9895817131889031e-06  9.1202973456675727e-06  9.8406771779505389e-06  1.1356708850220913e-05  1.4767284819623779e-05  2.1758933074216332e-05  1.7899490993533058e-05  1.0250842242342232e-05  6.9285181688706089e-06  1.2829050545441717e-05  1.4414577792190384e-05  1.5762697751528769e-05  2.9677790051352307e-02  5.7174062155818821e-02  5.3167185419301995e-02  3.3426256158103844e-02  1.0356191565124314e-02  3.1166934036161098e-05  1.1746342328358739e-05  9.5075974419412448e-06  9.1928636311702651e-06  9.0837220913152095e-06  8.9425802328156775e-06  8.7859989695153071e-06  8.6299646753145713e-06  8.4782837007983992e-06  8.3346156570153010e-06  8.2038731678799369e-06  8.0905059115784081e-06  7.9967026187598936e-06  7.9218075808574007e-06  7.8635239632009983e-06  7.8195732690967904e-06  7.7886137954290023e-06  7.7702302367616018e-06  7.7644538253319493e-06  7.7713276595632956e-06  7.7907583410080955e-06  7.8227348232348758e-06  7.8678451573126370e-06  7.9277075408153490e-06  8.0047865453514075e-06  8.1013865598551697e-06  8.2175596824076286e-06  8.3510384051054239e-06  8.4981023747285580e-06  8.6556271833245328e-06  8.8139921445559714e-06  8.9731752551486031e-06  9.1159862441292667e-06  9.2819348152586150e-06  1.0085679724253106e-05  1.2183199529745228e-05  2.4410343489353980e-05  7.8844089571149974e-03  2.9139393541977861e-02  5.0117582087672773e-02  5.7597622452036319e-02  4.1306367463186978e-02  1.6274132392608941e-05  1.4357477557790909e-05  3.1672462882503714e-05  8.9837922511932469e-02  2.0993546223246609e-01  2.1429169508993667e-01  1.8043009810182808e-01  1.3263543036034717e-01  8.2248464655558781e-02  3.7938723458363278e-02  5.7417932660819475e-03  1.6375619254606091e-05  1.0314386633745278e-05  9.4118515695825092e-06  9.1124559806164769e-06  8.8869443533365209e-06  8.6931941293749589e-06  8.5130445537657718e-06  8.3461932207369019e-06  8.1969949549800152e-06  8.0706839153670209e-06  7.9695796080249676e-06  7.8914314527502456e-06  7.8317909187041448e-06  7.7869062937563214e-06  7.7549853673458616e-06  7.7358220176809267e-06  7.7297681738699881e-06  7.7369852078326198e-06  7.7571972324859269e-06  7.7900102976186402e-06  7.8359031874341785e-06  7.8971390391543514e-06  7.9777788969788446e-06  8.0824791877113053e-06  8.2124740364954685e-06  8.3641753159721480e-06  8.5360995830957852e-06  8.7235220833699554e-06  8.9349644988010532e-06  9.2083846249304842e-06  9.5981384375977266e-06  1.0826547516672174e-05  1.6418488644709810e-05  2.3848671230407795e-03  3.1066286833896065e-02  7.6093072409165852e-02  1.2836145110882510e-01  1.7553923931258278e-01  2.0849133769450559e-01  2.0793208077029657e-01  1.1420183180598593e-01  2.3339965313682295e-05  4.0196504427377505e-01  4.6441461744452461e-01  4.9583631817563106e-01  4.2317682658808492e-01  3.5505401504959311e-01  2.7503248802968761e-01  1.9390061053313443e-01  1.1974973246156582e-01  6.0062752113304065e-02  1.6866505426345994e-02  2.9322460967113362e-05  1.1354298421445995e-05  9.4273523023737361e-06  9.0101107334789033e-06  8.7653098253130135e-06  8.5512162494139835e-06  8.3573394635694993e-06  8.1857158150803755e-06  8.0439103447226788e-06  7.9354894873468475e-06  7.8553720935919732e-06  7.7955396233038430e-06  7.7501392793189270e-06  7.7170738645249066e-06  7.6968153140298723e-06  7.6903619256815032e-06  7.6980996302676130e-06  7.7194446681061425e-06  7.7531746976989036e-06  7.7992550987589817e-06  7.8605906467719171e-06  7.9436288233334088e-06  8.0567671286655721e-06  8.2043098186741893e-06  8.3755047055125567e-06  8.5810375096956242e-06  8.8059130563777341e-06  9.1341062126706379e-06  9.8985840243306368e-06  1.1795683171972569e-05  2.3820631021622273e-05  1.1931009182504887e-02  5.3668440896049052e-02  1.1629634689820693e-01  1.8993154541390919e-01  2.7079919929859259e-01  3.5095836104411315e-01  4.1786082483781595e-01  4.4839204399182192e-01  4.6961742138404911e-01  3.5713237067371351e-01  9.9992204239785409e-01  9.8900228529946022e-01  7.8708442557436964e-01  6.6358813216188650e-01  5.5697997623013706e-01  4.4343851472136492e-01  3.3573745656316900e-01  2.3515456034224999e-01  1.4695492211022618e-01  7.6800384250959683e-02  2.7445339677831894e-02  2.1417048110478922e-04  1.2642557201656853e-05  9.4649312232613267e-06  8.8923266341463938e-06  8.6000129108249875e-06  8.3710271894460749e-06  8.1696842811349501e-06  8.0079508269810449e-06  7.8930515633468613e-06  7.8135485999846432e-06  7.7554680886811712e-06  7.7100376214967711e-06  7.6753001437250477e-06  7.6533426485978288e-06  7.6462974132809327e-06  7.6548562943571542e-06  7.6780463682962520e-06  7.7130880720248848e-06  7.7585092928206298e-06  7.8179443686717803e-06  7.9011339242472407e-06  8.0216873074887376e-06  8.1969296267295155e-06  8.3928930824358008e-06  8.6562975770311111e-06  9.0023438474538374e-06  1.0100292370499765e-05  1.3272890415606471e-05  5.1681691755787291e-05  2.1726482277065667e-02  7.1629319232376198e-02  1.4405648040075644e-01  2.3136418778979381e-01  3.3192435933311532e-01  4.4174072352472188e-01  5.4433221823485689e-01  6.5601239204152095e-01  8.0551082569589383e-01  9.9918810575755845e-01  9.9978197791271428e-01  9.9998426207574531e-01  9.9998626132278734e-01  9.9995114733253398e-01  9.0646105441797087e-01  7.4469144580794522e-01  6.1557241026733511e-01  4.8903237461958216e-01  3.6937159071444203e-01  2.6023590366063715e-01  1.6609091381806207e-01  9.1335270184125711e-02  3.8722613493850394e-02  5.6779306149832148e-03  1.6220375024990816e-05  9.9783160573817755e-06  8.8059160808446821e-06  8.4329060032506244e-06  8.1634425566673801e-06  7.9666977794347252e-06  7.8454213984571532e-06  7.7694030165501534e-06  7.7152546510164362e-06  7.6697572349760567e-06  7.6318629764026203e-06  7.6070864399640506e-06  7.5991622188624438e-06  7.6089265322314342e-06  7.6355950392328092e-06  7.6736560739047719e-06  7.7180768049264457e-06  7.7745649455111745e-06  7.8561074781886896e-06  7.9855972370339866e-06  8.2199713405667979e-06  8.4925800455268885e-06  9.0984736389913492e-06  1.0547491619911416e-05  1.6057001924623566e-05  2.2143879280448414e-03  3.2939741110603618e-02  8.7538873645441634e-02  1.6344439372629443e-01  2.5735371058512518e-01  3.6679706643951809e-01  4.8846439131080571e-01  6.1001867298774526e-01  7.4140222463803340e-01  9.3972225662284192e-01  9.9996766716663688e-01  9.9998775030303499e-01  9.9997841810549004e-01  9.9998959837315649e-01  9.9999307992113851e-01  9.9998613821447324e-01  9.9994671207029628e-01  9.1123485792755310e-01  7.6786856909421730e-01  6.3665519423179595e-01  5.0863826222801123e-01  3.8719956922678533e-01  2.7691899986688989e-01  1.8242022077909675e-01  1.0682692209082499e-01  5.2212952182239140e-02  1.6086264434613359e-02  4.1172228261016633e-05  1.2747435269853440e-05  9.5120370080747254e-06  8.4945124878316642e-06  8.0820045146617732e-06  7.8910719963924882e-06  7.7878496248204376e-06  7.7218737043053774e-06  7.6664347434932064e-06  7.6185978782642382e-06  7.5880498413779417e-06  7.5788091864412324e-06  7.5910016183076123e-06  7.6263002416360350e-06  7.6764853497342872e-06  7.7328794464108604e-06  7.8117904358431455e-06  7.9372221860160985e-06  8.1748155675071528e-06  8.8119109169767540e-06  9.9392430220728424e-06  1.2598150757909298e-05  3.2002541845671368e-05  1.1487064817407446e-02  4.7294774403485576e-02  1.0447828898572839e-01  1.7982904949865872e-01  2.7461876998672274e-01  3.8564109166748484e-01  5.0859888140746334e-01  6.3647862702750779e-01  7.6493326498606229e-01  9.3893994788763036e-01  9.9995847170258712e-01  9.9998654641308782e-01  9.9999306847714042e-01  9.9998877621137394e-01  9.9998899007434461e-01  9.9999360209888666e-01  9.9998940173355089e-01  9.9997585165906511e-01  9.9984715695249149e-01  8.8381192478598181e-01  7.6345241806027409e-01  6.3895389791001089e-01  5.1583543087335226e-01  3.9848710856621633e-01  2.9218515822977476e-01  2.0116419929418322e-01  1.2784457769634774e-01  7.3382945842545927e-02  3.6076746356834402e-02  1.1661060315710901e-02  6.2522311224645754e-05  1.6553339740799772e-05  1.1648130505859243e-05  1.0116754188804825e-05  9.3781730411055100e-06  8.9667240531678895e-06  8.6962226718767914e-06  8.5229648053787293e-06  8.4400804803808610e-06  8.4218358337566904e-06  8.4601964492955434e-06  8.5745277155593201e-06  8.7561804560108373e-06  8.9995588412429835e-06  9.4143461814507574e-06  1.0131475468302059e-05  1.1580943218473850e-05  1.6013713580291272e-05  4.9800737202040316e-05  8.6100162755939971e-03  3.1424859685136725e-02  7.0266566839058034e-02  1.2611832187643621e-01  1.9911503850973364e-01  2.9037321849711251e-01  3.9782635883132633e-01  5.1612917181754314e-01  6.4084335453890706e-01  7.6278988045831830e-01  8.9728106112331929e-01  9.9988966526358891e-01  9.9997569976970191e-01  9.9998902460273564e-01  9.9999344083927921e-01  9.9998965161806519e-01  9.9997992029360827e-01  9.9999041274959655e-01  9.9998605477798197e-01  9.9997491507758918e-01  9.9992596411729873e-01  9.6117125423409810e-01  8.5604176694027800e-01  7.4888431949596290e-01  6.3487756181656774e-01  5.2028629980250296e-01  4.1123192161306354e-01  3.1289006991936186e-01  2.2893576755979794e-01  1.6119007860026355e-01  1.0947632368396576e-01  7.2366769168580980e-02  4.6881757520153243e-02  2.8681098419551996e-02  1.6332112811087152e-02  9.0387809673873245e-03  4.8086053821588025e-03  1.8957311485220446e-03  3.6360316547006234e-04  1.1582102006963497e-04  7.9386077694546979e-05  7.1999980949878875e-05  7.7881474777880214e-05  1.0951283017423614e-04  3.1289752472873878e-04  1.6742532100479735e-03  4.4280701699606455e-03  8.4052761986851288e-03  1.4921621626341088e-02  2.5649744930666719e-02  4.3304523516526444e-02  7.0353417739667579e-02  1.0835130146507113e-01  1.6001975138227845e-01  2.2753970459813752e-01  3.1194392452267994e-01  4.1121109872562944e-01  5.2119925865122030e-01  6.3674249911633873e-01  7.5191638652848058e-01  8.5980153024213501e-01  9.7019746371694537e-01  9.9992279373241677e-01  9.9997230202043952e-01  9.9998485135854442e-01  9.9998978891036971e-01  9.9998487763160337e-01  9.9979788676146908e-01  9.9995685752478025e-01  9.9995443578012000e-01  9.9993732744837960e-01  9.9986542697123870e-01  9.8077336318649166e-01  9.0879437328900292e-01  8.2995700005351380e-01  7.3465865368138672e-01  6.3256622041495536e-01  5.2995321614342095e-01  4.3313185552533284e-01  3.4687395862576459e-01  2.7400438573118041e-01  2.1545080113558851e-01  1.7037503203139814e-01  1.3671241136711257e-01  1.1244276183678420e-01  9.5670006713847372e-02  8.4002361199198489e-02  7.5716843903448960e-02  7.0084973773307940e-02  6.6293808646960384e-02  6.3821479171504644e-02  6.2325721972927718e-02  6.1820142901573401e-02  6.2137742404314113e-02  6.3364006027325684e-02  6.5782780735122157e-02  6.9562438836160659e-02  7.5133779182803992e-02  8.3312303870534815e-02  9.5120922595334501e-02  1.1229786734205831e-01  1.3665213584913488e-01  1.6988306080898419e-01  2.1463028878073470e-01  2.7344576269411780e-01  3.4686789910671162e-01  4.3382229073705209e-01  5.3135484873882144e-01  6.3482686938281063e-01  7.3798568910466122e-01  8.3389382770661946e-01  9.1664114594173052e-01  9.8086660266524683e-01  9.9983468339997716e-01  9.9992869665713213e-01  9.9995436209820954e-01  9.9996271212547372e-01  9.9993983283761578e-01  3.3938408462537334e-01  6.4708947395984073e-01  8.0588237138677754e-01  9.0137311770464412e-01  9.4149917104646053e-01  9.4461745087277249e-01  9.2240471196212703e-01  8.7644717509309822e-01  8.0812663323568390e-01  7.2690722107514738e-01  6.3940503303319618e-01  5.5280031366013971e-01  4.727756764