<?xml version="1.0"?>
<VTKFile type="UnstructuredGrid"  version="0.1"  >
<UnstructuredGrid>
<Piece  NumberOfPoints="2601" NumberOfCells="5000">
<Points>
<DataArray  type="Float64"  NumberOfComponents="3"  format="ascii">0 0 0  0.03 0 0  0.06 0 0  0.09 0 0  0.12 0 0  0.15 0 0  0.18 0 0  0.21 0 0  0.24 0 0  0.27 0 0  0.3 0 0  0.33 0 0  0.36 0 0  0.39 0 0  0.42 0 0  0.45 0 0  0.48 0 0  0.51 0 0  0.54 0 0  0.57 0 0  0.6 0 0  0.63 0 0  0.66 0 0  0.6899999999999999 0 0  0.72 0 0  0.75 0 0  0.78 0 0  0.8100000000000001 0 0  0.84 0 0  0.87 0 0  0.9 0 0  0.93 0 0  0.96 0 0  0.99 0 0  1.02 0 0  1.05 0 0  1.08 0 0  1.11 0 0  1.14 0 0  1.17 0 0  1.2 0 0  1.23 0 0  1.26 0 0  1.29 0 0  1.32 0 0  1.35 0 0  1.38 0 0  1.41 0 0  1.44 0 0  1.47 0 0  1.5 0 0  0 0.02 0  0.03 0.02 0  0.06 0.02 0  0.09 0.02 0  0.12 0.02 0  0.15 0.02 0  0.18 0.02 0  0.21 0.02 0  0.24 0.02 0  0.27 0.02 0  0.3 0.02 0  0.33 0.02 0  0.36 0.02 0  0.39 0.02 0  0.42 0.02 0  0.45 0.02 0  0.48 0.02 0  0.51 0.02 0  0.54 0.02 0  0.57 0.02 0  0.6 0.02 0  0.63 0.02 0  0.66 0.02 0  0.6899999999999999 0.02 0  0.72 0.02 0  0.75 0.02 0  0.78 0.02 0  0.8100000000000001 0.02 0  0.84 0.02 0  0.87 0.02 0  0.9 0.02 0  0.93 0.02 0  0.96 0.02 0  0.99 0.02 0  1.02 0.02 0  1.05 0.02 0  1.08 0.02 0  1.11 0.02 0  1.14 0.02 0  1.17 0.02 0  1.2 0.02 0  1.23 0.02 0  1.26 0.02 0  1.29 0.02 0  1.32 0.02 0  1.35 0.02 0  1.38 0.02 0  1.41 0.02 0  1.44 0.02 0  1.47 0.02 0  1.5 0.02 0  0 0.04 0  0.03 0.04 0  0.06 0.04 0  0.09 0.04 0  0.12 0.04 0  0.15 0.04 0  0.18 0.04 0  0.21 0.04 0  0.24 0.04 0  0.27 0.04 0  0.3 0.04 0  0.33 0.04 0  0.36 0.04 0  0.39 0.04 0  0.42 0.04 0  0.45 0.04 0  0.48 0.04 0  0.51 0.04 0  0.54 0.04 0  0.57 0.04 0  0.6 0.04 0  0.63 0.04 0  0.66 0.04 0  0.6899999999999999 0.04 0  0.72 0.04 0  0.75 0.04 0  0.78 0.04 0  0.8100000000000001 0.04 0  0.84 0.04 0  0.87 0.04 0  0.9 0.04 0  0.93 0.04 0  0.96 0.04 0  0.99 0.04 0  1.02 0.04 0  1.05 0.04 0  1.08 0.04 0  1.11 0.04 0  1.14 0.04 0  1.17 0.04 0  1.2 0.04 0  1.23 0.04 0  1.26 0.04 0  1.29 0.04 0  1.32 0.04 0  1.35 0.04 0  1.38 0.04 0  1.41 0.04 0  1.44 0.04 0  1.47 0.04 0  1.5 0.04 0  0 0.06 0  0.03 0.06 0  0.06 0.06 0  0.09 0.06 0  0.12 0.06 0  0.15 0.06 0  0.18 0.06 0  0.21 0.06 0  0.24 0.06 0  0.27 0.06 0  0.3 0.06 0  0.33 0.06 0  0.36 0.06 0  0.39 0.06 0  0.42 0.06 0  0.45 0.06 0  0.48 0.06 0  0.51 0.06 0  0.54 0.06 0  0.57 0.06 0  0.6 0.06 0  0.63 0.06 0  0.66 0.06 0  0.6899999999999999 0.06 0  0.72 0.06 0  0.75 0.06 0  0.78 0.06 0  0.8100000000000001 0.06 0  0.84 0.06 0  0.87 0.06 0  0.9 0.06 0  0.93 0.06 0  0.96 0.06 0  0.99 0.06 0  1.02 0.06 0  1.05 0.06 0  1.08 0.06 0  1.11 0.06 0  1.14 0.06 0  1.17 0.06 0  1.2 0.06 0  1.23 0.06 0  1.26 0.06 0  1.29 0.06 0  1.32 0.06 0  1.35 0.06 0  1.38 0.06 0  1.41 0.06 0  1.44 0.06 0  1.47 0.06 0  1.5 0.06 0  0 0.08 0  0.03 0.08 0  0.06 0.08 0  0.09 0.08 0  0.12 0.08 0  0.15 0.08 0  0.18 0.08 0  0.21 0.08 0  0.24 0.08 0  0.27 0.08 0  0.3 0.08 0  0.33 0.08 0  0.36 0.08 0  0.39 0.08 0  0.42 0.08 0  0.45 0.08 0  0.48 0.08 0  0.51 0.08 0  0.54 0.08 0  0.57 0.08 0  0.6 0.08 0  0.63 0.08 0  0.66 0.08 0  0.6899999999999999 0.08 0  0.72 0.08 0  0.75 0.08 0  0.78 0.08 0  0.8100000000000001 0.08 0  0.84 0.08 0  0.87 0.08 0  0.9 0.08 0  0.93 0.08 0  0.96 0.08 0  0.99 0.08 0  1.02 0.08 0  1.05 0.08 0  1.08 0.08 0  1.11 0.08 0  1.14 0.08 0  1.17 0.08 0  1.2 0.08 0  1.23 0.08 0  1.26 0.08 0  1.29 0.08 0  1.32 0.08 0  1.35 0.08 0  1.38 0.08 0  1.41 0.08 0  1.44 0.08 0  1.47 0.08 0  1.5 0.08 0  0 0.1 0  0.03 0.1 0  0.06 0.1 0  0.09 0.1 0  0.12 0.1 0  0.15 0.1 0  0.18 0.1 0  0.21 0.1 0  0.24 0.1 0  0.27 0.1 0  0.3 0.1 0  0.33 0.1 0  0.36 0.1 0  0.39 0.1 0  0.42 0.1 0  0.45 0.1 0  0.48 0.1 0  0.51 0.1 0  0.54 0.1 0  0.57 0.1 0  0.6 0.1 0  0.63 0.1 0  0.66 0.1 0  0.6899999999999999 0.1 0  0.72 0.1 0  0.75 0.1 0  0.78 0.1 0  0.8100000000000001 0.1 0  0.84 0.1 0  0.87 0.1 0  0.9 0.1 0  0.93 0.1 0  0.96 0.1 0  0.99 0.1 0  1.02 0.1 0  1.05 0.1 0  1.08 0.1 0  1.11 0.1 0  1.14 0.1 0  1.17 0.1 0  1.2 0.1 0  1.23 0.1 0  1.26 0.1 0  1.29 0.1 0  1.32 0.1 0  1.35 0.1 0  1.38 0.1 0  1.41 0.1 0  1.44 0.1 0  1.47 0.1 0  1.5 0.1 0  0 0.12 0  0.03 0.12 0  0.06 0.12 0  0.09 0.12 0  0.12 0.12 0  0.15 0.12 0  0.18 0.12 0  0.21 0.12 0  0.24 0.12 0  0.27 0.12 0  0.3 0.12 0  0.33 0.12 0  0.36 0.12 0  0.39 0.12 0  0.42 0.12 0  0.45 0.12 0  0.48 0.12 0  0.51 0.12 0  0.54 0.12 0  0.57 0.12 0  0.6 0.12 0  0.63 0.12 0  0.66 0.12 0  0.6899999999999999 0.12 0  0.72 0.12 0  0.75 0.12 0  0.78 0.12 0  0.8100000000000001 0.12 0  0.84 0.12 0  0.87 0.12 0  0.9 0.12 0  0.93 0.12 0  0.96 0.12 0  0.99 0.12 0  1.02 0.12 0  1.05 0.12 0  1.08 0.12 0  1.11 0.12 0  1.14 0.12 0  1.17 0.12 0  1.2 0.12 0  1.23 0.12 0  1.26 0.12 0  1.29 0.12 0  1.32 0.12 0  1.35 0.12 0  1.38 0.12 0  1.41 0.12 0  1.44 0.12 0  1.47 0.12 0  1.5 0.12 0  0 0.14 0  0.03 0.14 0  0.06 0.14 0  0.09 0.14 0  0.12 0.14 0  0.15 0.14 0  0.18 0.14 0  0.21 0.14 0  0.24 0.14 0  0.27 0.14 0  0.3 0.14 0  0.33 0.14 0  0.36 0.14 0  0.39 0.14 0  0.42 0.14 0  0.45 0.14 0  0.48 0.14 0  0.51 0.14 0  0.54 0.14 0  0.57 0.14 0  0.6 0.14 0  0.63 0.14 0  0.66 0.14 0  0.6899999999999999 0.14 0  0.72 0.14 0  0.75 0.14 0  0.78 0.14 0  0.8100000000000001 0.14 0  0.84 0.14 0  0.87 0.14 0  0.9 0.14 0  0.93 0.14 0  0.96 0.14 0  0.99 0.14 0  1.02 0.14 0  1.05 0.14 0  1.08 0.14 0  1.11 0.14 0  1.14 0.14 0  1.17 0.14 0  1.2 0.14 0  1.23 0.14 0  1.26 0.14 0  1.29 0.14 0  1.32 0.14 0  1.35 0.14 0  1.38 0.14 0  1.41 0.14 0  1.44 0.14 0  1.47 0.14 0  1.5 0.14 0  0 0.16 0  0.03 0.16 0  0.06 0.16 0  0.09 0.16 0  0.12 0.16 0  0.15 0.16 0  0.18 0.16 0  0.21 0.16 0  0.24 0.16 0  0.27 0.16 0  0.3 0.16 0  0.33 0.16 0  0.36 0.16 0  0.39 0.16 0  0.42 0.16 0  0.45 0.16 0  0.48 0.16 0  0.51 0.16 0  0.54 0.16 0  0.57 0.16 0  0.6 0.16 0  0.63 0.16 0  0.66 0.16 0  0.6899999999999999 0.16 0  0.72 0.16 0  0.75 0.16 0  0.78 0.16 0  0.8100000000000001 0.16 0  0.84 0.16 0  0.87 0.16 0  0.9 0.16 0  0.93 0.16 0  0.96 0.16 0  0.99 0.16 0  1.02 0.16 0  1.05 0.16 0  1.08 0.16 0  1.11 0.16 0  1.14 0.16 0  1.17 0.16 0  1.2 0.16 0  1.23 0.16 0  1.26 0.16 0  1.29 0.16 0  1.32 0.16 0  1.35 0.16 0  1.38 0.16 0  1.41 0.16 0  1.44 0.16 0  1.47 0.16 0  1.5 0.16 0  0 0.18 0  0.03 0.18 0  0.06 0.18 0  0.09 0.18 0  0.12 0.18 0  0.15 0.18 0  0.18 0.18 0  0.21 0.18 0  0.24 0.18 0  0.27 0.18 0  0.3 0.18 0  0.33 0.18 0  0.36 0.18 0  0.39 0.18 0  0.42 0.18 0  0.45 0.18 0  0.48 0.18 0  0.51 0.18 0  0.54 0.18 0  0.57 0.18 0  0.6 0.18 0  0.63 0.18 0  0.66 0.18 0  0.6899999999999999 0.18 0  0.72 0.18 0  0.75 0.18 0  0.78 0.18 0  0.8100000000000001 0.18 0  0.84 0.18 0  0.87 0.18 0  0.9 0.18 0  0.93 0.18 0  0.96 0.18 0  0.99 0.18 0  1.02 0.18 0  1.05 0.18 0  1.08 0.18 0  1.11 0.18 0  1.14 0.18 0  1.17 0.18 0  1.2 0.18 0  1.23 0.18 0  1.26 0.18 0  1.29 0.18 0  1.32 0.18 0  1.35 0.18 0  1.38 0.18 0  1.41 0.18 0  1.44 0.18 0  1.47 0.18 0  1.5 0.18 0  0 0.2 0  0.03 0.2 0  0.06 0.2 0  0.09 0.2 0  0.12 0.2 0  0.15 0.2 0  0.18 0.2 0  0.21 0.2 0  0.24 0.2 0  0.27 0.2 0  0.3 0.2 0  0.33 0.2 0  0.36 0.2 0  0.39 0.2 0  0.42 0.2 0  0.45 0.2 0  0.48 0.2 0  0.51 0.2 0  0.54 0.2 0  0.57 0.2 0  0.6 0.2 0  0.63 0.2 0  0.66 0.2 0  0.6899999999999999 0.2 0  0.72 0.2 0  0.75 0.2 0  0.78 0.2 0  0.8100000000000001 0.2 0  0.84 0.2 0  0.87 0.2 0  0.9 0.2 0  0.93 0.2 0  0.96 0.2 0  0.99 0.2 0  1.02 0.2 0  1.05 0.2 0  1.08 0.2 0  1.11 0.2 0  1.14 0.2 0  1.17 0.2 0  1.2 0.2 0  1.23 0.2 0  1.26 0.2 0  1.29 0.2 0  1.32 0.2 0  1.35 0.2 0  1.38 0.2 0  1.41 0.2 0  1.44 0.2 0  1.47 0.2 0  1.5 0.2 0  0 0.22 0  0.03 0.22 0  0.06 0.22 0  0.09 0.22 0  0.12 0.22 0  0.15 0.22 0  0.18 0.22 0  0.21 0.22 0  0.24 0.22 0  0.27 0.22 0  0.3 0.22 0  0.33 0.22 0  0.36 0.22 0  0.39 0.22 0  0.42 0.22 0  0.45 0.22 0  0.48 0.22 0  0.51 0.22 0  0.54 0.22 0  0.57 0.22 0  0.6 0.22 0  0.63 0.22 0  0.66 0.22 0  0.6899999999999999 0.22 0  0.72 0.22 0  0.75 0.22 0  0.78 0.22 0  0.8100000000000001 0.22 0  0.84 0.22 0  0.87 0.22 0  0.9 0.22 0  0.93 0.22 0  0.96 0.22 0  0.99 0.22 0  1.02 0.22 0  1.05 0.22 0  1.08 0.22 0  1.11 0.22 0  1.14 0.22 0  1.17 0.22 0  1.2 0.22 0  1.23 0.22 0  1.26 0.22 0  1.29 0.22 0  1.32 0.22 0  1.35 0.22 0  1.38 0.22 0  1.41 0.22 0  1.44 0.22 0  1.47 0.22 0  1.5 0.22 0  0 0.24 0  0.03 0.24 0  0.06 0.24 0  0.09 0.24 0  0.12 0.24 0  0.15 0.24 0  0.18 0.24 0  0.21 0.24 0  0.24 0.24 0  0.27 0.24 0  0.3 0.24 0  0.33 0.24 0  0.36 0.24 0  0.39 0.24 0  0.42 0.24 0  0.45 0.24 0  0.48 0.24 0  0.51 0.24 0  0.54 0.24 0  0.57 0.24 0  0.6 0.24 0  0.63 0.24 0  0.66 0.24 0  0.6899999999999999 0.24 0  0.72 0.24 0  0.75 0.24 0  0.78 0.24 0  0.8100000000000001 0.24 0  0.84 0.24 0  0.87 0.24 0  0.9 0.24 0  0.93 0.24 0  0.96 0.24 0  0.99 0.24 0  1.02 0.24 0  1.05 0.24 0  1.08 0.24 0  1.11 0.24 0  1.14 0.24 0  1.17 0.24 0  1.2 0.24 0  1.23 0.24 0  1.26 0.24 0  1.29 0.24 0  1.32 0.24 0  1.35 0.24 0  1.38 0.24 0  1.41 0.24 0  1.44 0.24 0  1.47 0.24 0  1.5 0.24 0  0 0.26 0  0.03 0.26 0  0.06 0.26 0  0.09 0.26 0  0.12 0.26 0  0.15 0.26 0  0.18 0.26 0  0.21 0.26 0  0.24 0.26 0  0.27 0.26 0  0.3 0.26 0  0.33 0.26 0  0.36 0.26 0  0.39 0.26 0  0.42 0.26 0  0.45 0.26 0  0.48 0.26 0  0.51 0.26 0  0.54 0.26 0  0.57 0.26 0  0.6 0.26 0  0.63 0.26 0  0.66 0.26 0  0.6899999999999999 0.26 0  0.72 0.26 0  0.75 0.26 0  0.78 0.26 0  0.8100000000000001 0.26 0  0.84 0.26 0  0.87 0.26 0  0.9 0.26 0  0.93 0.26 0  0.96 0.26 0  0.99 0.26 0  1.02 0.26 0  1.05 0.26 0  1.08 0.26 0  1.11 0.26 0  1.14 0.26 0  1.17 0.26 0  1.2 0.26 0  1.23 0.26 0  1.26 0.26 0  1.29 0.26 0  1.32 0.26 0  1.35 0.26 0  1.38 0.26 0  1.41 0.26 0  1.44 0.26 0  1.47 0.26 0  1.5 0.26 0  0 0.28 0  0.03 0.28 0  0.06 0.28 0  0.09 0.28 0  0.12 0.28 0  0.15 0.28 0  0.18 0.28 0  0.21 0.28 0  0.24 0.28 0  0.27 0.28 0  0.3 0.28 0  0.33 0.28 0  0.36 0.28 0  0.39 0.28 0  0.42 0.28 0  0.45 0.28 0  0.48 0.28 0  0.51 0.28 0  0.54 0.28 0  0.57 0.28 0  0.6 0.28 0  0.63 0.28 0  0.66 0.28 0  0.6899999999999999 0.28 0  0.72 0.28 0  0.75 0.28 0  0.78 0.28 0  0.8100000000000001 0.28 0  0.84 0.28 0  0.87 0.28 0  0.9 0.28 0  0.93 0.28 0  0.96 0.28 0  0.99 0.28 0  1.02 0.28
[...]
<PointData  Scalars="ControlVisualisation"> 
<DataArray  type="Float64"  Name="ControlVisualisation"  format="ascii">5.4493457950289008e-03  3.6431218195517126e-03  3.6548464078592522e-03  3.6789559710671393e-03  3.7159902181363902e-03  3.7615963243216441e-03  3.8091850488291596e-03  3.8530092434269328e-03  3.8895077475126260e-03  3.9172458060446839e-03  3.9362881123290536e-03  3.9475511542618313e-03  3.9523377404770930e-03  3.9520528504832239e-03  3.9480447560540774e-03  3.9415231680538570e-03  3.9335222831226443e-03  3.9248899626429202e-03  3.9162933847453566e-03  3.9082359016399315e-03  3.9010810311837889e-03  3.8950796374171135e-03  3.8903966921928126e-03  3.8871348455536414e-03  3.8853531072958326e-03  3.8850798689374221e-03  3.8863200563269366e-03  3.8890564146593703e-03  3.8932449041605144e-03  3.8988040953924059e-03  3.9055984912173122e-03  3.9134161651167860e-03  3.9219421854059877e-03  3.9307307611458385e-03  3.9391801254683983e-03  3.9465139547117441e-03  3.9517717007779068e-03  3.9538105059930117e-03  3.9513270236268359e-03  3.9429195518036683e-03  3.9272196203496449e-03  3.9031297575405828e-03  3.8701919401158227e-03  3.8291467016572872e-03  3.7825713843308542e-03  3.7352432263113035e-03  3.6936213645340295e-03  3.6635899434928738e-03  3.6470038546924538e-03  3.6404624201703578e-03  1.0846282246227213e-02  3.6413117398653898e-03  1.8273589091864970e-03  1.8401118329302287e-03  1.8684330889773913e-03  1.9150230124123841e-03  1.9764755153129916e-03  2.0451214527326812e-03  2.1125207881866259e-03  2.1719656448274849e-03  2.2194653040819774e-03  2.2535993436825193e-03  2.2748418917127164e-03  2.2848216802605183e-03  2.2857181566262302e-03  2.2798354246698371e-03  2.2693367311729146e-03  2.2561015153954177e-03  2.2416668354792407e-03  2.2272241440468915e-03  2.2136507138648832e-03  2.2015600339408635e-03  2.1913589254361917e-03  2.1833024232004727e-03  2.1775408229318836e-03  2.1741562351589106e-03  2.1731880217179104e-03  2.1746474691301337e-03  2.1785222045981414e-03  2.1847705071101043e-03  2.1933051213441730e-03  2.2039657631121542e-03  2.2164797411603487e-03  2.2304116760342714e-03  2.2451063829418035e-03  2.2596326509606401e-03  2.2727376613438542e-03  2.2828227118938489e-03  2.2879533964463706e-03  2.2859251404995246e-03  2.2744199851394468e-03  2.2513053732589813e-03  2.2151192740213631e-03  2.1656785571463593e-03  2.1047673852349520e-03  2.0367134644333315e-03  1.9684019059715645e-03  1.9082316713196548e-03  1.8636799638485899e-03  1.8376729031532788e-03  1.8265250671493289e-03  3.6401079500587969e-03  3.6448464826419696e-03  1.8313507416456067e-03  1.8483552879616479e-03  1.8855429192463939e-03  1.9457176550665828e-03  2.0240430624669718e-03  2.1112072008625587e-03  2.1970258479676557e-03  2.2730690122696978e-03  2.3340241248987407e-03  2.3777506119161082e-03  2.4045943477417463e-03  2.4165375043461407e-03  2.4164191215472492e-03  2.4073272218429645e-03  2.3921960919331777e-03  2.3735803531504097e-03  2.3535576328830763e-03  2.3337185739248857e-03  2.3152122370986967e-03  2.2988212919381984e-03  2.2850469147848670e-03  2.2741891910491728e-03  2.2664147226365730e-03  2.2618081197274416e-03  2.2604072713902066e-03  2.2622236058111741e-03  2.2672485155078885e-03  2.2754463576650963e-03  2.2867333710013607e-03  2.3009408328596628e-03  2.3177605946634546e-03  2.3366731476068118e-03  2.3568635058650441e-03  2.3771365725830753e-03  2.3958478364294682e-03  2.4108688037874594e-03  2.4196037139176656e-03  2.4190830641143708e-03  2.4061861619624949e-03  2.3780854551128478e-03  2.3329410181216256e-03  2.2706587841718681e-03  2.1935737849515685e-03  2.1072134810401293e-03  2.0200442136967495e-03  1.9419495495860391e-03  1.8822732597153931e-03  1.8461896734026687e-03  1.8304351325087462e-03  3.6427072316633073e-03  3.6481788065027068e-03  1.8369403145493414e-03  1.8608066427311099e-03  1.9077976822550074e-03  1.9772716110676354e-03  2.0615436944365008e-03  2.1511632993370857e-03  2.2367033457681936e-03  2.3105294164596957e-03  2.3681993202200411e-03  2.4082098754660167e-03  2.4312517898613488e-03  2.4395041940703604e-03  2.4359290391224022e-03  2.4236878435791079e-03  2.4057581644878010e-03  2.3847186227415763e-03  2.3626533233457813e-03  2.3411412128930302e-03  2.3213033691302024e-03  2.3038833103042702e-03  2.2893387276946577e-03  2.2779283327958515e-03  2.2697840483262254e-03  2.2649650085608008e-03  2.2634938938187270e-03  2.2653775516618653e-03  2.2706135690051467e-03  2.2791834257127226e-03  2.2910314793293759e-03  2.3060274869069362e-03  2.3239094591480155e-03  2.3442055783001866e-03  2.3661412625411780e-03  2.3885466544491724e-03  2.4097864997510332e-03  2.4277294300759735e-03  2.4397581349335563e-03  2.4428596740916101e-03  2.4338329160771412e-03  2.4097047522262912e-03  2.3683290791360312e-03  2.3093500243366043e-03  2.2343262941302614e-03  2.1481827825561841e-03  2.0583229142153710e-03  1.9735011830453717e-03  1.9034984629960176e-03  1.8568188614712495e-03  1.8348933926852432e-03  3.6462642120258918e-03  3.6475396128384302e-03  1.8441038247691552e-03  1.8865787686117891e-03  1.9560067685285092e-03  2.0401627930281062e-03  2.1277299324644352e-03  2.2143990596114795e-03  2.2937457802580290e-03  2.3598459983624268e-03  2.4096305512396571e-03  2.4421578075885979e-03  2.4583187003663306e-03  2.4604360512684715e-03  2.4515385338005477e-03  2.4347753123548249e-03  2.4130745549977039e-03  2.3889558240023220e-03  2.3644386008479751e-03  2.3410289929985022e-03  2.3197670821911102e-03  2.3013115992785425e-03  2.2860389019197227e-03  2.2741369116883103e-03  2.2656817106649096e-03  2.2606930526909716e-03  2.2591706027674705e-03  2.2611140854418223e-03  2.2665296856002660e-03  2.2754236535004538e-03  2.2877823680643901e-03  2.3035358793360517e-03  2.3224992926284735e-03  2.3442875708943999e-03  2.3682112662215516e-03  2.3931754252267253e-03  2.4176109726335017e-03  2.4394431194992307e-03  2.4561271986987638e-03  2.4647610819052788e-03  2.4621463537514367e-03  2.4450970662024773e-03  2.4110964297720857e-03  2.3605986317334995e-03  2.2940525121847308e-03  2.2147060007004370e-03  2.1272260769427888e-03  2.0377383112340866e-03  1.9513015717149747e-03  1.8800845117814388e-03  1.8388363510400511e-03  3.6474806226528826e-03  3.6483245963825463e-03  1.8628348087154668e-03  1.9888220888193155e-03  2.1699764837105752e-03  2.2882730179896822e-03  2.3333718042727221e-03  2.3591508361846085e-03  2.3942167455111686e-03  2.4336827795806747e-03  2.4670303590088815e-03  2.4875193998676790e-03  2.4936484988193845e-03  2.4871800364585400e-03  2.4710050747338988e-03  2.4481516557437332e-03  2.4214314621742172e-03  2.3932609406680069e-03  2.3655585029867202e-03  2.3397209527528363e-03  2.3166692915065250e-03  2.2969387211749094e-03  2.2807883331765594e-03  2.2683059063065792e-03  2.2594903385955330e-03  2.2543080066141025e-03  2.2527277430444761e-03  2.2547396816363393e-03  2.2603611411733194e-03  2.2696309340397812e-03  2.2825915762825768e-03  2.2992559415374258e-03  2.3195487310738849e-03  2.3432121278927744e-03  2.3696822796033614e-03  2.3979709247669823e-03  2.4265965726984174e-03  2.4535815518988654e-03  2.4765850955999059e-03  2.4928283929750608e-03  2.4991665600474044e-03  2.4930399775794426e-03  2.4731604184974089e-03  2.4444471536030636e-03  2.4141622681627247e-03  2.3913251488334049e-03  2.3714904322872134e-03  2.3121673821241079e-03  2.1319200821537437e-03  1.9415574529277270e-03  1.8456681400746773e-03  3.6447581800060059e-03  3.7316117748841409e-03  2.0061646470323361e-03  2.7705606369852341e-03  4.5075597428702275e-03  5.5407969835987933e-03  4.4614166860725704e-03  3.3476639186766338e-03  2.7890472921133108e-03  2.5989323881535045e-03  2.5575023566186245e-03  2.5491933915724181e-03  2.5390805341406488e-03  2.5207758289876527e-03  2.4951051380656336e-03  2.4644628740904083e-03  2.4313848091268579e-03  2.3981263718992332e-03  2.3664662812350168e-03  2.3376526948829073e-03  2.3124454813240221e-03  2.2912107929357215e-03  2.2740470140575515e-03  2.2609075233502281e-03  2.2516907443471943e-03  2.2462952620727642e-03  2.2446513055701606e-03  2.2467370281624229e-03  2.2525833320319716e-03  2.2622690929415619e-03  2.2759069259990442e-03  2.2936167262199727e-03  2.3154724015904838e-03  2.3413957485332454e-03  2.3709936977022519e-03  2.4034192247086965e-03  2.4373179743275583e-03  2.4708844233621739e-03  2.5019894020086729e-03  2.5281472391360756e-03  2.5484362274384243e-03  2.5638924331380579e-03  2.5840179104133108e-03  2.6587680767870053e-03  2.8863543861092664e-03  3.3909388132881114e-03  4.3770158183130100e-03  5.5550933373154539e-03  4.6960137776458208e-03  2.8874377949881049e-03  1.9621654542766685e-03  3.6576930697608109e-03  4.0307366005699350e-03  3.9833222873720507e-03  3.4758292160049858e-02  6.3402674850714921e-02  6.0536909384294749e-02  4.2071871566690788e-02  2.0407983152869895e-02  7.2918642588801095e-03  3.6541420076831154e-03  2.8521510337979777e-03  2.6612442964509654e-03  2.6016223178050467e-03  2.5626730449424865e-03  2.5241161558902997e-03  2.4836826786858042e-03  2.4427883157914815e-03  2.4033571922628355e-03  2.3669604227703378e-03  2.3346444245419011e-03  2.3069591007117631e-03  2.2840443194580046e-03  2.2657810655709694e-03  2.2519470351024854e-03  2.2423154401158070e-03  2.2367030866326004e-03  2.2349943630910474e-03  2.2371533773323710e-03  2.2432269026618980e-03  2.2533404816572149e-03  2.2676893488012525e-03  2.2865245234673379e-03  2.3101176537683754e-03  2.3386409461139106e-03  2.3719382627960502e-03  2.4093728123813110e-03  2.4497319434569082e-03  2.4914128073713526e-03  2.5328853781269602e-03  2.5747769975316098e-03  2.6237250857599017e-03  2.7109027465454460e-03  2.9561387916906359e-03  3.7074494911556247e-03  6.6066966544915326e-03  1.7921146402950863e-02  3.9118971682549450e-02  5.8738987706953398e-02  6.3718812076279219e-02  4.5284485323051550e-02  3.8937032129703055e-03  3.8960906232329553e-03  8.0324075946563347e-03  9.2065126750543874e-02  2.1495935098510552e-01  2.2026747272808220e-01  1.8821871244462482e-01  1.4227388069079980e-01  9.2174417592035901e-02  4.8815993217299562e-02  1.7408082860895346e-02  5.2463649533482249e-03  3.1722649193811799e-03  2.7444815074422180e-03  2.6247056543643181e-03  2.5603232741095282e-03  2.5061555911371006e-03  2.4555056998734684e-03  2.4086852296941711e-03  2.3667497696114302e-03  2.3304257600957725e-03  2.2999971340025111e-03  2.2753002235945175e-03  2.2559174433416374e-03  2.2414004956104166e-03  2.2313734920674407e-03  2.2255594147569781e-03  2.2237906576380666e-03  2.2260159593256177e-03  2.2322999929816128e-03  2.2428199969141490e-03  2.2578631852928580e-03  2.2778308312403641e-03  2.3032534220866758e-03  2.3346686306407460e-03  2.3722699790473811e-03  2.4156675452675354e-03  2.4638792188907055e-03  2.5164279754344922e-03  2.5748161856952215e-03  2.6536236569905725e-03  2.8181579022500181e-03  3.2937239781340166e-03  5.0531292730924809e-03  1.4144804947622724e-02  4.2395526692763370e-02  8.6606770243351630e-02  1.3815157698944849e-01  1.8411829985646097e-01  2.1464739972407340e-01  2.1206497372960509e-01  1.1461059218927323e-01  6.0383319796652726e-03  4.1196695271824402e-01  4.6588239168851309e-01  4.9870578358293027e-01  4.2803281892902251e-01  3.6203425954874319e-01  2.8393188610497155e-01  2.0461094187181383e-01  1.3201798525312630e-01  7.2959183820430609e-02  2.9308512357607841e-02  7.9460736253072189e-03  3.5851276923166749e-03  2.8209155568790457e-03  2.6254516087089248e-03  2.5364854346653712e-03  2.4704071914723224e-03  2.4141156508778652e-03  2.3656239881074651e-03  2.3247326023886471e-03  2.2913448468634703e-03  2.2648558094581703e-03  2.2444110703738751e-03  2.2292757411106873e-03  2.2189072826385293e-03  2.2129263349692204e-03  2.2111084110259067e-03  2.2133867966535963e-03  2.2198463234461272e-03  2.2307200248408311e-03  2.2463924523858760e-03  2.2674206863732586e-03  2.2946682039084606e-03  2.3292452438339901e-03  2.3719130426213117e-03  2.4227271844551295e-03  2.4824588330054375e-03  2.5549614969783102e-03  2.6628655271260997e-03  2.9185297375432821e-03  3.6753859934183491e-03  7.1227092618644594e-03  2.5415803556904999e-02  6.6659190247524314e-02  1.2840604668354333e-01  2.0083890869882770e-01  2.7980657481955573e-01  3.5759119238608028e-01  4.2197039168275652e-01  4.5386745814686547e-01  4.7762703286994357e-01  3.5961661620338048e-01  9.8193698871596347e-01  9.5786113967809616e-01  7.9163565232033772e-01  6.6521836139228263e-01  5.6051645237525671e-01  4.5007703429560891e-01  3.4535347514294795e-01  2.4712205314104077e-01  1.6063164824815682e-01  9.1030600372952408e-02  4.1203218175408396e-02  1.2065338146944432e-02  4.2316402653761334e-03  2.9363584482187217e-03  2.6208747908277900e-03  2.4989511949792416e-03  2.4230034370040631e-03  2.3647206595755347e-03  2.3179090805295634e-03  2.2811586208162367e-03  2.2528901599857517e-03  2.2314727360476434e-03  2.2158035033720356e-03  2.2051639684662772e-03  2.1990626782849893e-03  2.1972117473150455e-03  2.1995303391845805e-03  2.2061304607406372e-03  2.2173058030840347e-03  2.2335489706255926e-03  2.2555734944111664e-03  2.2846780236476637e-03  2.3231167109078014e-03  2.3731235220825668e-03  2.4365967767285219e-03  2.5241544394631350e-03  2.6765502828142479e-03  3.0455952871057692e-03  4.2300338234408947e-03  1.0237591954897094e-02  3.5526554720868429e-02  8.6500841749414567e-02  1.5760360825122008e-01  2.4362460783331780e-01  3.4179369080962002e-01  4.4726614293361994e-01  5.4939908540214721e-01  6.5997720891682565e-01  8.0695099469883413e-01  9.6651589368401780e-01  9.6696772208954607e-01  9.9561341755700683e-01  9.9625934390803228e-01  9.8833690028315579e-01  8.9735296778973495e-01  7.4572963685587579e-01  6.1840512695367811e-01  4.9596149236439840e-01  3.7972828734071273e-01  2.7326374267591091e-01  1.8075731870104006e-01  1.0680204051355247e-01  5.3359160067076021e-02  1.8358377200485151e-02  5.6748965824115361e-03  3.2441881302961374e-03  2.6668316112447099e-03  2.4758402501830930e-03  2.3803748690119264e-03  2.3178544926491999e-03  2.2743170542189979e-03  2.2430398627536312e-03  2.2200494989718595e-03  2.2035380817311194e-03  2.1924898991597039e-03  2.1862195705065544e-03  2.1843371197949875e-03  2.1867467844930324e-03  2.1936228559304950e-03  2.2053560506873505e-03  2.2226871356154799e-03  2.2466568786907283e-03  2.2793775261755168e-03  2.3265756437577771e-03  2.3977471531204672e-03  2.5132585755739149e-03  2.7542935860043354e-03  3.3339591020883548e-03  5.3329504845600105e-03  1.5287727281875538e-02  4.7661642491334082e-02  1.0285792871155196e-01  1.7820831194026576e-01  2.7046970093778977e-01  3.7724700602722705e-01  4.9455396309223693e-01  6.1402272737200836e-01  7.4501895438137722e-01  9.2300534682616708e-01  9.9147382062702338e-01  9.9662231837314086e-01  9.9421142420569586e-01  9.9706267002588045e-01  9.9804207839728598e-01  9.9614521272376111e-01  9.8731015721068416e-01  9.0246713310233895e-01  7.6644061638760896e-01  6.3988984196098098e-01  5.1594642295803217e-01  3.9829933634889125e-01  2.9078338643289653e-01  1.9787105025467613e-01  1.2316687226121878e-01  6.7467367789934451e-02  2.9783483419174375e-02  1.0212940915811911e-02  4.3794602989998613e-03  3.0530844765438449e-03  2.6152368421746954e-03  2.4287327383689800e-03  2.3358640470311286e-03  2.2818994273426426e-03  2.2467584519673587e-03  2.2235207655223969e-03  2.2088430668936541e-03  2.2008350240484854e-03  2.1985663633931432e-03  2.2018403404993662e-03  2.2111324809767729e-03  2.2274912870157040e-03  2.2533029061854392e-03  2.2925503570461170e-03  2.3536478899758764e-03  2.4626253047819640e-03  2.6766549883704156e-03  3.1189027708073986e-03  4.2895142064967497e-03  8.8494777046445160e-03  2.5854405443081176e-02  6.2456236669659229e-02  1.2005687993108784e-01  1.9555455013599390e-01  2.8865698532778167e-01  3.9679742626227071e-01  5.1557891582884718e-01  6.3905096897677849e-01  7.6741443078905858e-01  9.2214047569212887e-01  9.8938048295689807e-01  9.9625790450701324e-01  9.9804119909839506e-01  9.9683857808497267e-01  9.9689467928381681e-01  9.9818397990644714e-01  9.9699784652703372e-01  9.9345468552324834e-01  9.7506424196750285e-01  8.7834122526957104e-01  7.6156966129920611e-01  6.4239869896244728e-01  5.2380387318589006e-01  4.1027043015622855e-01  3.0661604107402501e-01  2.1722420878122747e-01  1.4461543584211234e-01  8.9333063389926803e-02  5.0950491456504383e-02  2.5316750867551058e-02  1.0976178046675399e-02  5.6406127925525571e-03  3.9338922040023259e-03  3.2775592581291303e-03  2.9591361871648719e-03  2.7843765068990911e-03  2.6843607191913061e-03  2.6267643980207520e-03  2.5967986985833275e-03  2.5877798035760942e-03  2.5979736833038787e-03  2.6297259754055786e-03  2.6892545489465335e-03  2.7918873646128788e-03  2.9645887219611200e-03  3.2596357605796742e-03  3.8587181875067091e-03  5.3859232093243911e-03  1.0003567714918855e-02  2.2990979176594345e-02  4.7184618265342509e-02  8.6378532926015814e-02  1.4236887771101447e-01  2.1506703776102448e-01  3.0512698545304934e-01  4.0944984323257255e-01  5.2393932471490889e-01  6.4348478671315001e-01  7.6346560053868173e-01  8.8937933646755474e-01  9.7825672975521671e-01  9.9340071166140276e-01  9.9689934159098725e-01  9.9813986987368553e-01  9.9707706960485154e-01  9.9449999865734007e-01  9.9730489370452602e-01  9.9607211059731837e-01  9.9311905369217668e-01  9.8374171438381897e-01  9.3954111942128160e-01  8.4946865882475375e-01  7.4758204570918596e-01  6.3873017919937636e-01  5.2877148724145862e-01  4.2341030078644809e-01  3.2755615680034827e-01  2.4506353680871290e-01  1.7794045955201007e-01  1.2600131443358797e-01  8.7929326231255087e-02  6.1223513793445712e-02  4.1759667671996688e-02  2.8348940429835330e-02  2.1281653667946432e-02  1.6569411057327066e-02  1.3335903109145859e-02  1.1538723843037323e-02  1.0540697508310125e-02  1.0019749940753738e-02  9.8402949056260128e-03  9.9576356960320283e-03  1.0422718747431980e-02  1.1344584916205304e-02  1.2984154679947738e-02  1.5874443869628229e-02  2.0072517549242400e-02  2.6101673595930391e-02  3.7798281021268018e-02  5.7911361981945374e-02  8.5723680457378396e-02  1.2475088358472694e-01  1.7626685095749672e-01  2.4346628568391529e-01  3.2665493845607141e-01  4.2306603732413184e-01  5.2930286557013684e-01  6.4032428153996801e-01  7.5062633859803496e-01  8.5557409447873778e-01  9.4456831992006884e-01  9.8312191970517793e-01  9.9252021119831491e-01  9.9574813401359519e-01  9.9713599155896460e-01  9.9577040793399840e-01  9.6607842587277126e-01  9.8926350664776497e-01  9.8826919099416421e-01  9.8481517855310541e-01  9.7589609097842867e-01  9.5038377887568337e-01  8.9729693203723604e-01  8.2314669412102848e-01  7.3379743476213311e-01  6.3674526358328554e-01  5.3856945071881734e-01  4.4519001678096526e-01  3.6110287609933800e-01  2.8928783344926917e-01  2.3109189104870614e-01  1.8568190038397647e-01  1.5142224196080695e-01  1.2635303506514536e-01  1.0822104407079471e-01  9.6047667730139188e-02  8.7935706819469356e-02  8.1658401001029543e-02  7.7282276418160212e-02  7.4561289392962068e-02  7.2938914921927084e-02  7.2403510756535061e-02  7.2830291851662551e-02  7.4241650222406294e-02  7.6780683903039951e-02  8.0740594871226132e-02  8.6886940641060950e-02  9.5517394173114667e-02  1.0726173942746457e-01  1.2502481120478920e-01  1.5057948946215774e-01  1.8463865102077451e-01  2.2978156589798579e-01  2.8858420717134436e-01  3.6079764904710016e-01  4.4528750353444657e-01  5.3939041303912327e-01  6.3857886090855032e-01  7.3701985175985785e-01  8.2787700344703075e-01  9.0278016889767387e-01  9.5086675610814853e-01  9.7432892158578865e-01  9.8346947575431110e-01  9.8822674069966576e-01  9.9023625275838267e-01  9.8471877534988950e-01  3.4376073205679197e-01  6.4967492093397028e-01  7.9809640849218422e-01  8.8605192834040958e-01  9.2007152421214877e-01  9.2439423989442893e-01  9.0589790101330381e-01  8.6441486110560883e-01  8.0229684730210327e-01  7.2620574559798556e-01  6.4343793287283868e-01  5.6082669346582292e-01  4.837286480