<?xml version="1.0"?>
<VTKFile type="UnstructuredGrid"  version="0.1"  >
<UnstructuredGrid>
<Piece  NumberOfPoints="2601" NumberOfCells="5000">
<Points>
<DataArray  type="Float64"  NumberOfComponents="3"  format="ascii">0 0 0  0.03 0 0  0.06 0 0  0.09 0 0  0.12 0 0  0.15 0 0  0.18 0 0  0.21 0 0  0.24 0 0  0.27 0 0  0.3 0 0  0.33 0 0  0.36 0 0  0.39 0 0  0.42 0 0  0.45 0 0  0.48 0 0  0.51 0 0  0.54 0 0  0.57 0 0  0.6 0 0  0.63 0 0  0.66 0 0  0.6899999999999999 0 0  0.72 0 0  0.75 0 0  0.78 0 0  0.8100000000000001 0 0  0.84 0 0  0.87 0 0  0.9 0 0  0.93 0 0  0.96 0 0  0.99 0 0  1.02 0 0  1.05 0 0  1.08 0 0  1.11 0 0  1.14 0 0  1.17 0 0  1.2 0 0  1.23 0 0  1.26 0 0  1.29 0 0  1.32 0 0  1.35 0 0  1.38 0 0  1.41 0 0  1.44 0 0  1.47 0 0  1.5 0 0  0 0.02 0  0.03 0.02 0  0.06 0.02 0  0.09 0.02 0  0.12 0.02 0  0.15 0.02 0  0.18 0.02 0  0.21 0.02 0  0.24 0.02 0  0.27 0.02 0  0.3 0.02 0  0.33 0.02 0  0.36 0.02 0  0.39 0.02 0  0.42 0.02 0  0.45 0.02 0  0.48 0.02 0  0.51 0.02 0  0.54 0.02 0  0.57 0.02 0  0.6 0.02 0  0.63 0.02 0  0.66 0.02 0  0.6899999999999999 0.02 0  0.72 0.02 0  0.75 0.02 0  0.78 0.02 0  0.8100000000000001 0.02 0  0.84 0.02 0  0.87 0.02 0  0.9 0.02 0  0.93 0.02 0  0.96 0.02 0  0.99 0.02 0  1.02 0.02 0  1.05 0.02 0  1.08 0.02 0  1.11 0.02 0  1.14 0.02 0  1.17 0.02 0  1.2 0.02 0  1.23 0.02 0  1.26 0.02 0  1.29 0.02 0  1.32 0.02 0  1.35 0.02 0  1.38 0.02 0  1.41 0.02 0  1.44 0.02 0  1.47 0.02 0  1.5 0.02 0  0 0.04 0  0.03 0.04 0  0.06 0.04 0  0.09 0.04 0  0.12 0.04 0  0.15 0.04 0  0.18 0.04 0  0.21 0.04 0  0.24 0.04 0  0.27 0.04 0  0.3 0.04 0  0.33 0.04 0  0.36 0.04 0  0.39 0.04 0  0.42 0.04 0  0.45 0.04 0  0.48 0.04 0  0.51 0.04 0  0.54 0.04 0  0.57 0.04 0  0.6 0.04 0  0.63 0.04 0  0.66 0.04 0  0.6899999999999999 0.04 0  0.72 0.04 0  0.75 0.04 0  0.78 0.04 0  0.8100000000000001 0.04 0  0.84 0.04 0  0.87 0.04 0  0.9 0.04 0  0.93 0.04 0  0.96 0.04 0  0.99 0.04 0  1.02 0.04 0  1.05 0.04 0  1.08 0.04 0  1.11 0.04 0  1.14 0.04 0  1.17 0.04 0  1.2 0.04 0  1.23 0.04 0  1.26 0.04 0  1.29 0.04 0  1.32 0.04 0  1.35 0.04 0  1.38 0.04 0  1.41 0.04 0  1.44 0.04 0  1.47 0.04 0  1.5 0.04 0  0 0.06 0  0.03 0.06 0  0.06 0.06 0  0.09 0.06 0  0.12 0.06 0  0.15 0.06 0  0.18 0.06 0  0.21 0.06 0  0.24 0.06 0  0.27 0.06 0  0.3 0.06 0  0.33 0.06 0  0.36 0.06 0  0.39 0.06 0  0.42 0.06 0  0.45 0.06 0  0.48 0.06 0  0.51 0.06 0  0.54 0.06 0  0.57 0.06 0  0.6 0.06 0  0.63 0.06 0  0.66 0.06 0  0.6899999999999999 0.06 0  0.72 0.06 0  0.75 0.06 0  0.78 0.06 0  0.8100000000000001 0.06 0  0.84 0.06 0  0.87 0.06 0  0.9 0.06 0  0.93 0.06 0  0.96 0.06 0  0.99 0.06 0  1.02 0.06 0  1.05 0.06 0  1.08 0.06 0  1.11 0.06 0  1.14 0.06 0  1.17 0.06 0  1.2 0.06 0  1.23 0.06 0  1.26 0.06 0  1.29 0.06 0  1.32 0.06 0  1.35 0.06 0  1.38 0.06 0  1.41 0.06 0  1.44 0.06 0  1.47 0.06 0  1.5 0.06 0  0 0.08 0  0.03 0.08 0  0.06 0.08 0  0.09 0.08 0  0.12 0.08 0  0.15 0.08 0  0.18 0.08 0  0.21 0.08 0  0.24 0.08 0  0.27 0.08 0  0.3 0.08 0  0.33 0.08 0  0.36 0.08 0  0.39 0.08 0  0.42 0.08 0  0.45 0.08 0  0.48 0.08 0  0.51 0.08 0  0.54 0.08 0  0.57 0.08 0  0.6 0.08 0  0.63 0.08 0  0.66 0.08 0  0.6899999999999999 0.08 0  0.72 0.08 0  0.75 0.08 0  0.78 0.08 0  0.8100000000000001 0.08 0  0.84 0.08 0  0.87 0.08 0  0.9 0.08 0  0.93 0.08 0  0.96 0.08 0  0.99 0.08 0  1.02 0.08 0  1.05 0.08 0  1.08 0.08 0  1.11 0.08 0  1.14 0.08 0  1.17 0.08 0  1.2 0.08 0  1.23 0.08 0  1.26 0.08 0  1.29 0.08 0  1.32 0.08 0  1.35 0.08 0  1.38 0.08 0  1.41 0.08 0  1.44 0.08 0  1.47 0.08 0  1.5 0.08 0  0 0.1 0  0.03 0.1 0  0.06 0.1 0  0.09 0.1 0  0.12 0.1 0  0.15 0.1 0  0.18 0.1 0  0.21 0.1 0  0.24 0.1 0  0.27 0.1 0  0.3 0.1 0  0.33 0.1 0  0.36 0.1 0  0.39 0.1 0  0.42 0.1 0  0.45 0.1 0  0.48 0.1 0  0.51 0.1 0  0.54 0.1 0  0.57 0.1 0  0.6 0.1 0  0.63 0.1 0  0.66 0.1 0  0.6899999999999999 0.1 0  0.72 0.1 0  0.75 0.1 0  0.78 0.1 0  0.8100000000000001 0.1 0  0.84 0.1 0  0.87 0.1 0  0.9 0.1 0  0.93 0.1 0  0.96 0.1 0  0.99 0.1 0  1.02 0.1 0  1.05 0.1 0  1.08 0.1 0  1.11 0.1 0  1.14 0.1 0  1.17 0.1 0  1.2 0.1 0  1.23 0.1 0  1.26 0.1 0  1.29 0.1 0  1.32 0.1 0  1.35 0.1 0  1.38 0.1 0  1.41 0.1 0  1.44 0.1 0  1.47 0.1 0  1.5 0.1 0  0 0.12 0  0.03 0.12 0  0.06 0.12 0  0.09 0.12 0  0.12 0.12 0  0.15 0.12 0  0.18 0.12 0  0.21 0.12 0  0.24 0.12 0  0.27 0.12 0  0.3 0.12 0  0.33 0.12 0  0.36 0.12 0  0.39 0.12 0  0.42 0.12 0  0.45 0.12 0  0.48 0.12 0  0.51 0.12 0  0.54 0.12 0  0.57 0.12 0  0.6 0.12 0  0.63 0.12 0  0.66 0.12 0  0.6899999999999999 0.12 0  0.72 0.12 0  0.75 0.12 0  0.78 0.12 0  0.8100000000000001 0.12 0  0.84 0.12 0  0.87 0.12 0  0.9 0.12 0  0.93 0.12 0  0.96 0.12 0  0.99 0.12 0  1.02 0.12 0  1.05 0.12 0  1.08 0.12 0  1.11 0.12 0  1.14 0.12 0  1.17 0.12 0  1.2 0.12 0  1.23 0.12 0  1.26 0.12 0  1.29 0.12 0  1.32 0.12 0  1.35 0.12 0  1.38 0.12 0  1.41 0.12 0  1.44 0.12 0  1.47 0.12 0  1.5 0.12 0  0 0.14 0  0.03 0.14 0  0.06 0.14 0  0.09 0.14 0  0.12 0.14 0  0.15 0.14 0  0.18 0.14 0  0.21 0.14 0  0.24 0.14 0  0.27 0.14 0  0.3 0.14 0  0.33 0.14 0  0.36 0.14 0  0.39 0.14 0  0.42 0.14 0  0.45 0.14 0  0.48 0.14 0  0.51 0.14 0  0.54 0.14 0  0.57 0.14 0  0.6 0.14 0  0.63 0.14 0  0.66 0.14 0  0.6899999999999999 0.14 0  0.72 0.14 0  0.75 0.14 0  0.78 0.14 0  0.8100000000000001 0.14 0  0.84 0.14 0  0.87 0.14 0  0.9 0.14 0  0.93 0.14 0  0.96 0.14 0  0.99 0.14 0  1.02 0.14 0  1.05 0.14 0  1.08 0.14 0  1.11 0.14 0  1.14 0.14 0  1.17 0.14 0  1.2 0.14 0  1.23 0.14 0  1.26 0.14 0  1.29 0.14 0  1.32 0.14 0  1.35 0.14 0  1.38 0.14 0  1.41 0.14 0  1.44 0.14 0  1.47 0.14 0  1.5 0.14 0  0 0.16 0  0.03 0.16 0  0.06 0.16 0  0.09 0.16 0  0.12 0.16 0  0.15 0.16 0  0.18 0.16 0  0.21 0.16 0  0.24 0.16 0  0.27 0.16 0  0.3 0.16 0  0.33 0.16 0  0.36 0.16 0  0.39 0.16 0  0.42 0.16 0  0.45 0.16 0  0.48 0.16 0  0.51 0.16 0  0.54 0.16 0  0.57 0.16 0  0.6 0.16 0  0.63 0.16 0  0.66 0.16 0  0.6899999999999999 0.16 0  0.72 0.16 0  0.75 0.16 0  0.78 0.16 0  0.8100000000000001 0.16 0  0.84 0.16 0  0.87 0.16 0  0.9 0.16 0  0.93 0.16 0  0.96 0.16 0  0.99 0.16 0  1.02 0.16 0  1.05 0.16 0  1.08 0.16 0  1.11 0.16 0  1.14 0.16 0  1.17 0.16 0  1.2 0.16 0  1.23 0.16 0  1.26 0.16 0  1.29 0.16 0  1.32 0.16 0  1.35 0.16 0  1.38 0.16 0  1.41 0.16 0  1.44 0.16 0  1.47 0.16 0  1.5 0.16 0  0 0.18 0  0.03 0.18 0  0.06 0.18 0  0.09 0.18 0  0.12 0.18 0  0.15 0.18 0  0.18 0.18 0  0.21 0.18 0  0.24 0.18 0  0.27 0.18 0  0.3 0.18 0  0.33 0.18 0  0.36 0.18 0  0.39 0.18 0  0.42 0.18 0  0.45 0.18 0  0.48 0.18 0  0.51 0.18 0  0.54 0.18 0  0.57 0.18 0  0.6 0.18 0  0.63 0.18 0  0.66 0.18 0  0.6899999999999999 0.18 0  0.72 0.18 0  0.75 0.18 0  0.78 0.18 0  0.8100000000000001 0.18 0  0.84 0.18 0  0.87 0.18 0  0.9 0.18 0  0.93 0.18 0  0.96 0.18 0  0.99 0.18 0  1.02 0.18 0  1.05 0.18 0  1.08 0.18 0  1.11 0.18 0  1.14 0.18 0  1.17 0.18 0  1.2 0.18 0  1.23 0.18 0  1.26 0.18 0  1.29 0.18 0  1.32 0.18 0  1.35 0.18 0  1.38 0.18 0  1.41 0.18 0  1.44 0.18 0  1.47 0.18 0  1.5 0.18 0  0 0.2 0  0.03 0.2 0  0.06 0.2 0  0.09 0.2 0  0.12 0.2 0  0.15 0.2 0  0.18 0.2 0  0.21 0.2 0  0.24 0.2 0  0.27 0.2 0  0.3 0.2 0  0.33 0.2 0  0.36 0.2 0  0.39 0.2 0  0.42 0.2 0  0.45 0.2 0  0.48 0.2 0  0.51 0.2 0  0.54 0.2 0  0.57 0.2 0  0.6 0.2 0  0.63 0.2 0  0.66 0.2 0  0.6899999999999999 0.2 0  0.72 0.2 0  0.75 0.2 0  0.78 0.2 0  0.8100000000000001 0.2 0  0.84 0.2 0  0.87 0.2 0  0.9 0.2 0  0.93 0.2 0  0.96 0.2 0  0.99 0.2 0  1.02 0.2 0  1.05 0.2 0  1.08 0.2 0  1.11 0.2 0  1.14 0.2 0  1.17 0.2 0  1.2 0.2 0  1.23 0.2 0  1.26 0.2 0  1.29 0.2 0  1.32 0.2 0  1.35 0.2 0  1.38 0.2 0  1.41 0.2 0  1.44 0.2 0  1.47 0.2 0  1.5 0.2 0  0 0.22 0  0.03 0.22 0  0.06 0.22 0  0.09 0.22 0  0.12 0.22 0  0.15 0.22 0  0.18 0.22 0  0.21 0.22 0  0.24 0.22 0  0.27 0.22 0  0.3 0.22 0  0.33 0.22 0  0.36 0.22 0  0.39 0.22 0  0.42 0.22 0  0.45 0.22 0  0.48 0.22 0  0.51 0.22 0  0.54 0.22 0  0.57 0.22 0  0.6 0.22 0  0.63 0.22 0  0.66 0.22 0  0.6899999999999999 0.22 0  0.72 0.22 0  0.75 0.22 0  0.78 0.22 0  0.8100000000000001 0.22 0  0.84 0.22 0  0.87 0.22 0  0.9 0.22 0  0.93 0.22 0  0.96 0.22 0  0.99 0.22 0  1.02 0.22 0  1.05 0.22 0  1.08 0.22 0  1.11 0.22 0  1.14 0.22 0  1.17 0.22 0  1.2 0.22 0  1.23 0.22 0  1.26 0.22 0  1.29 0.22 0  1.32 0.22 0  1.35 0.22 0  1.38 0.22 0  1.41 0.22 0  1.44 0.22 0  1.47 0.22 0  1.5 0.22 0  0 0.24 0  0.03 0.24 0  0.06 0.24 0  0.09 0.24 0  0.12 0.24 0  0.15 0.24 0  0.18 0.24 0  0.21 0.24 0  0.24 0.24 0  0.27 0.24 0  0.3 0.24 0  0.33 0.24 0  0.36 0.24 0  0.39 0.24 0  0.42 0.24 0  0.45 0.24 0  0.48 0.24 0  0.51 0.24 0  0.54 0.24 0  0.57 0.24 0  0.6 0.24 0  0.63 0.24 0  0.66 0.24 0  0.6899999999999999 0.24 0  0.72 0.24 0  0.75 0.24 0  0.78 0.24 0  0.8100000000000001 0.24 0  0.84 0.24 0  0.87 0.24 0  0.9 0.24 0  0.93 0.24 0  0.96 0.24 0  0.99 0.24 0  1.02 0.24 0  1.05 0.24 0  1.08 0.24 0  1.11 0.24 0  1.14 0.24 0  1.17 0.24 0  1.2 0.24 0  1.23 0.24 0  1.26 0.24 0  1.29 0.24 0  1.32 0.24 0  1.35 0.24 0  1.38 0.24 0  1.41 0.24 0  1.44 0.24 0  1.47 0.24 0  1.5 0.24 0  0 0.26 0  0.03 0.26 0  0.06 0.26 0  0.09 0.26 0  0.12 0.26 0  0.15 0.26 0  0.18 0.26 0  0.21 0.26 0  0.24 0.26 0  0.27 0.26 0  0.3 0.26 0  0.33 0.26 0  0.36 0.26 0  0.39 0.26 0  0.42 0.26 0  0.45 0.26 0  0.48 0.26 0  0.51 0.26 0  0.54 0.26 0  0.57 0.26 0  0.6 0.26 0  0.63 0.26 0  0.66 0.26 0  0.6899999999999999 0.26 0  0.72 0.26 0  0.75 0.26 0  0.78 0.26 0  0.8100000000000001 0.26 0  0.84 0.26 0  0.87 0.26 0  0.9 0.26 0  0.93 0.26 0  0.96 0.26 0  0.99 0.26 0  1.02 0.26 0  1.05 0.26 0  1.08 0.26 0  1.11 0.26 0  1.14 0.26 0  1.17 0.26 0  1.2 0.26 0  1.23 0.26 0  1.26 0.26 0  1.29 0.26 0  1.32 0.26 0  1.35 0.26 0  1.38 0.26 0  1.41 0.26 0  1.44 0.26 0  1.47 0.26 0  1.5 0.26 0  0 0.28 0  0.03 0.28 0  0.06 0.28 0  0.09 0.28 0  0.12 0.28 0  0.15 0.28 0  0.18 0.28 0  0.21 0.28 0  0.24 0.28 0  0.27 0.28 0  0.3 0.28 0  0.33 0.28 0  0.36 0.28 0  0.39 0.28 0  0.42 0.28 0  0.45 0.28 0  0.48 0.28 0  0.51 0.28 0  0.54 0.28 0  0.57 0.28 0  0.6 0.28 0  0.63 0.28 0  0.66 0.28 0  0.6899999999999999 0.28 0  0.72 0.28 0  0.75 0.28 0  0.78 0.28 0  0.8100000000000001 0.28 0  0.84 0.28 0  0.87 0.28 0  0.9 0.28 0  0.93 0.28 0  0.96 0.28 0  0.99 0.28 0  1.02 0.28
[...]
<PointData  Scalars="ControlVisualisation"> 
<DataArray  type="Float64"  Name="ControlVisualisation"  format="ascii">3.2215814817072429e-04  2.1277307360804672e-04  2.1355767704657588e-04  2.1517043921568269e-04  2.1765329877024598e-04  2.2073536003144173e-04  2.2398666772589185e-04  2.2700787285742397e-04  2.2953353227658208e-04  2.3144666669382326e-04  2.3274135319830143e-04  2.3347712735438580e-04  2.3374609985980346e-04  2.3365205137618149e-04  2.3329685025973656e-04  2.3277211456849950e-04  2.3215505395373403e-04  2.3150729573046658e-04  2.3087557111731434e-04  2.3029347134276678e-04  2.2978377230670462e-04  2.2936096050187111e-04  2.2903363918501830e-04  2.2880655941319013e-04  2.2868213720468920e-04  2.2866143945241045e-04  2.2874469179968093e-04  2.2893136395847193e-04  2.2921984367292901e-04  2.2960665713118550e-04  2.3008517141413098e-04  2.3064375447487425e-04  2.3126347335783581e-04  2.3191552786645326e-04  2.3255870728438715e-04  2.3313723242499116e-04  2.3357951165523170e-04  2.3379862932057361e-04  2.3369559882735930e-04  2.3316644428818655e-04  2.3211315600803008e-04  2.3046048314767802e-04  2.2818304940140885e-04  2.2534701077557800e-04  2.2215449412333233e-04  2.1894837788732951e-04  2.1615508866012852e-04  2.1414712349083177e-04  2.1303526811420964e-04  2.1259822190408583e-04  6.6657649456110149e-04  2.1265143404180828e-04  1.0577743409684814e-04  1.0654098648229550e-04  1.0823811644977089e-04  1.1103147331298059e-04  1.1473906919376227e-04  1.1892246132441443e-04  1.2306781480300906e-04  1.2674138304788430e-04  1.2967259393045568e-04  1.3175635164683881e-04  1.3301298736622590e-04  1.3354365831457743e-04  1.3349227515608366e-04  1.3301494357229941e-04  1.3225848154244422e-04  1.3134838485353824e-04  1.3038435511024282e-04  1.2944071086685242e-04  1.2856946844534950e-04  1.2780462933124499e-04  1.2716674862509983e-04  1.2666716144592901e-04  1.2631146377791862e-04  1.2610207192734137e-04  1.2603988489914933e-04  1.2612518133844853e-04  1.2635787810381821e-04  1.2673719515084639e-04  1.2726066449591592e-04  1.2792234531893503e-04  1.2871011686579401e-04  1.2960204082991617e-04  1.3056198606094537e-04  1.3153492233388650e-04  1.3244249903160868e-04  1.3318002769461667e-04  1.3361676328124201e-04  1.3360224976597358e-04  1.3298069657125095e-04  1.3161343576280734e-04  1.2940925605928281e-04  1.2636342520620574e-04  1.2260187060174980e-04  1.1842106969859620e-04  1.1426789983263180e-04  1.1064256382281434e-04  1.0796745673640436e-04  1.0640252818589102e-04  1.0573155917795103e-04  2.1257352741155093e-04  2.1288747110388375e-04  1.0601756785647431e-04  1.0701353281142898e-04  1.0918872590540849e-04  1.1269946826312760e-04  1.1729149226525300e-04  1.2244871811753580e-04  1.2755968989335204e-04  1.3209324297726047e-04  1.3571198876845608e-04  1.3827504098867929e-04  1.3979362700862903e-04  1.4038659310772799e-04  1.4023603240454014e-04  1.3954492682853310e-04  1.3850548532205742e-04  1.3728145744379874e-04  1.3600172806333362e-04  1.3476095748711308e-04  1.3362394548034962e-04  1.3263164530010830e-04  1.3180755254515048e-04  1.3116357567667455e-04  1.3070478705406785e-04  1.3043281618903968e-04  1.3034797810036571e-04  1.3045039110372048e-04  1.3074031031043326e-04  1.3121775689440055e-04  1.3188134142973855e-04  1.3272603902410657e-04  1.3373966343442983e-04  1.3489796608280745e-04  1.3615864474259012e-04  1.3745479310639787e-04  1.3868854111385691e-04  1.3972648569574337e-04  1.4039943478298688e-04  1.4051112923694993e-04  1.3985801371593800e-04  1.3826403808848267e-04  1.3561838711977737e-04  1.3191951135810916e-04  1.2731361406979555e-04  1.2216198753242893e-04  1.1701828478175346e-04  1.1245805477859523e-04  1.0898359366524498e-04  1.0687956957219001e-04  1.0596234768985404e-04  2.1274445813164379e-04  2.1311571486159025e-04  1.0636083662760993e-04  1.0775398364390087e-04  1.1048403838017807e-04  1.1449875382698360e-04  1.1941811541889235e-04  1.2473517628019970e-04  1.2983565519821222e-04  1.3421977217818439e-04  1.3762437948679253e-04  1.3995729105238100e-04  1.4124525571214432e-04  1.4161443827419729e-04  1.4125494143677042e-04  1.4037624294368253e-04  1.3917392088773012e-04  1.3781259564625889e-04  1.3642050873802406e-04  1.3509067219485873e-04  1.3388539280642160e-04  1.3284246911162936e-04  1.3198199739469085e-04  1.3131277413832052e-04  1.3083743606621831e-04  1.3055598038058620e-04  1.3046783179206526e-04  1.3057285648854073e-04  1.3087165725545174e-04  1.3136526347387058e-04  1.3205407094601395e-04  1.3293567218442787e-04  1.3400118198074169e-04  1.3522993322107537e-04  1.3658301752218936e-04  1.3799634975464453e-04  1.3937419470776629e-04  1.4058399534994551e-04  1.4145430680411806e-04  1.4178312389123265e-04  1.4135950056338504e-04  1.4000888590429532e-04  1.3760633957352216e-04  1.3412748433493368e-04  1.2965676482964869e-04  1.2448474236957928e-04  1.1917382786655362e-04  1.1426032629567456e-04  1.1021535013966848e-04  1.0750717140332248e-04  1.0623493962814955e-04  2.1298305179244368e-04  2.1307385728389552e-04  1.0678991739966887e-04  1.0925413099487583e-04  1.1320030540766692e-04  1.1790729773384899e-04  1.2301689508797855e-04  1.2831169413049509e-04  1.3312286354669352e-04  1.3704849789910041e-04  1.3998426694728649e-04  1.4188591563114264e-04  1.4277679013252441e-04  1.4278492432515886e-04  1.4210896570366550e-04  1.4096286905193251e-04  1.3954102687389064e-04  1.3800404613819356e-04  1.3647537856212785e-04  1.3504306217075197e-04  1.3376406672713191e-04  1.3267038722832489e-04  1.3177631703646062e-04  1.3108562593639063e-04  1.3059722634933485e-04  1.3030875295429103e-04  1.3021839817127777e-04  1.3032567946422039e-04  1.3063164655391195e-04  1.3113869088185662e-04  1.3184974997538829e-04  1.3276635415494578e-04  1.3388484230953949e-04  1.3519047189659831e-04  1.3665022630238329e-04  1.3820581685586528e-04  1.3976757326188325e-04  1.4120714210611216e-04  1.4235497543270802e-04  1.4300800441717975e-04  1.4295275879138453e-04  1.4200843998175887e-04  1.4003704441044589e-04  1.3705014620348164e-04  1.3309131688527668e-04  1.2814991577903784e-04  1.2286339158986949e-04  1.1779739894376124e-04  1.1294600969033915e-04  1.0886018118163603e-04  1.0646764646793339e-04  2.1306968016602062e-04  2.1313115108665166e-04  1.0794017189465579e-04  1.1529495664489976e-04  1.2555492888918524e-04  1.3098024973937824e-04  1.3320547034022554e-04  1.3563599691928852e-04  1.3843899327540084e-04  1.4108657909813247e-04  1.4319368911042176e-04  1.4446668618109130e-04  1.4479893752616504e-04  1.4430426854063251e-04  1.4319474721837910e-04  1.4168850180531738e-04  1.3997485622046918e-04  1.3820669947671709e-04  1.3650001629336557e-04  1.3493587679975428e-04  1.3356394170528833e-04  1.3240797258757948e-04  1.3147385488669649e-04  1.3075819164721128e-04  1.3025482176211807e-04  1.2995835016922107e-04  1.2986547473304409e-04  1.2997529753164353e-04  1.3028937880859049e-04  1.3081175309872945e-04  1.3154862297149145e-04  1.3250689317368617e-04  1.3369033600788910e-04  1.3509274794621295e-04  1.3668926700346771e-04  1.3842985559387147e-04  1.4023267517925179e-04  1.4197710849255560e-04  1.4350649046320676e-04  1.4460734308299096e-04  1.4505241410575696e-04  1.4464386828059566e-04  1.4348980248368200e-04  1.4163886549408981e-04  1.3966142913649673e-04  1.3738656861394901e-04  1.3564892996502129e-04  1.3273812885813147e-04  1.2284839671728148e-04  1.1234026743998521e-04  1.0684545289100992e-04  2.1288917748192826e-04  2.2022294035896309e-04  1.1668861421179504e-04  1.6093090119236202e-04  2.8064626202307111e-04  3.6019194609626101e-04  2.6021798206157982e-04  1.8735617148623294e-04  1.5683315156489488e-04  1.4850107293465608e-04  1.4772133907936354e-04  1.4785349713394123e-04  1.4738655561019081e-04  1.4621371359104825e-04  1.4453740977222752e-04  1.4257134838432757e-04  1.4048989235796513e-04  1.3843276966899571e-04  1.3650531674323026e-04  1.3477981742362151e-04  1.3329685656409846e-04  1.3206903843478022e-04  1.3109037690213306e-04  1.3034762234989764e-04  1.2982812806197033e-04  1.2952298715961417e-04  1.2942732087466131e-04  1.2953980864233714e-04  1.2986250349922044e-04  1.3040117357036410e-04  1.3116583697863566e-04  1.3217033272396034e-04  1.3342869564123534e-04  1.3494686238491290e-04  1.3671027908735743e-04  1.3867890671872586e-04  1.4078133953035777e-04  1.4291927773354371e-04  1.4494507380213221e-04  1.4660946588218314e-04  1.4779044285002642e-04  1.4833240419973715e-04  1.4926149967282165e-04  1.5216255062301670e-04  1.6433892500114747e-04  1.9086729710180407e-04  2.5101717220177440e-04  3.5910885479810672e-04  2.9515928398410893e-04  1.6996092063961048e-04  1.1450442868638370e-04  2.1378655769169612e-04  2.3962239354549509e-04  2.5569074963007003e-04  2.8789831945918727e-02  5.5504856466894070e-02  5.1281274535276727e-02  3.2517364552278563e-02  1.1071304312250617e-02  4.9756866258177579e-04  1.9948316275147308e-04  1.5995251546912495e-04  1.5300479464760229e-04  1.5072658374543879e-04  1.4854459602648386e-04  1.4613660690190880e-04  1.4360328608662535e-04  1.4107469226214657e-04  1.3866934077313335e-04  1.3647778585511866e-04  1.3456212761942795e-04  1.3295293645575098e-04  1.3164782543207020e-04  1.3062383714452209e-04  1.2985434545328321e-04  1.2931888915486422e-04  1.2900498529738589e-04  1.2890641222257276e-04  1.2902150883251702e-04  1.2935267717774262e-04  1.2990716332557522e-04  1.3069896643394451e-04  1.3175044802672889e-04  1.3308956703040863e-04  1.3473979063694210e-04  1.3669920495191490e-04  1.3893902571220779e-04  1.4140597877928033e-04  1.4402799933678218e-04  1.4664798308032734e-04  1.4920512082674793e-04  1.5177672339816126e-04  1.5507273816614656e-04  1.6798574956906326e-04  2.0649709791674116e-04  4.1497633218094525e-04  9.1510245718809148e-03  2.7801722783661668e-02  4.7876475400712465e-02  5.6076415163749803e-02  4.0936208825818311e-02  2.5938108155327850e-04  2.3635976393136939e-04  5.3324275020763751e-04  8.9592841966828790e-02  2.1027082288604118e-01  2.1447712764890589e-01  1.8024270381574431e-01  1.3208946128431015e-01  8.1261340824527420e-02  3.6021002348199931e-02  7.4039625002092161e-03  2.8481179946829630e-04  1.7440830106383467e-04  1.5657316815993728e-04  1.5153708916765989e-04  1.4801540685672603e-04  1.4477959150299648e-04  1.4171573187993073e-04  1.3890082790761002e-04  1.3640024539124479e-04  1.3426527369866451e-04  1.3251848422251596e-04  1.3113671173307505e-04  1.3007168654530162e-04  1.2927872027876903e-04  1.2872872299550796e-04  1.2840640972803662e-04  1.2830493371481674e-04  1.2842247904974239e-04  1.2876149292419766e-04  1.2932988470519443e-04  1.3014503038075181e-04  1.3123893846545359e-04  1.3265848080525552e-04  1.3445434760324474e-04  1.3664269695971284e-04  1.3919448294015188e-04  1.4209233199813636e-04  1.4528315674074596e-04  1.4882666465080934e-04  1.5320504225093998e-04  1.6073677356450439e-04  1.8254752323891357e-04  2.8108557171381494e-04  3.3765740298261071e-03  2.9114861779112905e-02  7.5500695260311765e-02  1.2847109454239836e-01  1.7544390929072262e-01  2.0847105420396714e-01  2.0799169517590146e-01  1.1363037522710742e-01  3.8570172232467995e-04  4.0270831260041057e-01  4.6478200416571858e-01  4.9592026893488944e-01  4.2344507237935736e-01  3.5516372141073588e-01  2.7538859104455843e-01  1.9402009815613630e-01  1.1890218512424308e-01  5.8912439030452395e-02  1.5933728840919033e-02  4.9333711773651145e-04  1.9246049617911037e-04  1.5844775514292449e-04  1.5062392567502357e-04  1.4617206310776857e-04  1.4241142230152952e-04  1.3911624453881211e-04  1.3625570945760988e-04  1.3386746611460882e-04  1.3197683007611612e-04  1.3052829239090891e-04  1.2943322200757850e-04  1.2862299368876623e-04  1.2806063600834030e-04  1.2773035289013207e-04  1.2762601183598468e-04  1.2774591501035228e-04  1.2809210254713244e-04  1.2867158888524809e-04  1.2950305512516222e-04  1.3062795075957032e-04  1.3211941010582087e-04  1.3406988783886385e-04  1.3653265946810136e-04  1.3942539803514913e-04  1.4290064051169420e-04  1.4692843873537428e-04  1.5260993498181295e-04  1.6534175833316420e-04  2.0128759614646745e-04  4.1508455990972560e-04  1.1541327779735645e-02  5.2905507919829585e-02  1.1631347336762025e-01  1.9030601398958119e-01  2.7110656949297668e-01  3.5130238854081558e-01  4.1788773961048631e-01  4.4886466103537814e-01  4.7034135113603220e-01  3.5697267817847750e-01  9.9877424872579312e-01  9.8527409225499984e-01  7.8756771840561546e-01  6.6314308649583176e-01  5.5721927495272927e-01  4.4354974981050133e-01  3.3608369695459150e-01  2.3552006408010803e-01  1.4678829400583304e-01  7.5741407041124031e-02  2.5924201275369738e-02  1.3933167293902796e-03  2.1955816148780575e-04  1.6097870770216344e-04  1.4887696532323309e-04  1.4335572377484660e-04  1.3937090778030334e-04  1.3605210363446365e-04  1.3334952024897232e-04  1.3131408437084272e-04  1.2982195780305252e-04  1.2871527354075559e-04  1.2789561281764206e-04  1.2732239169250211e-04  1.2698396110292104e-04  1.2687677893864492e-04  1.2699942661588778e-04  1.2735297565704047e-04  1.2794167826046796e-04  1.2878058567919294e-04  1.2991838264371565e-04  1.3146361469020500e-04  1.3357209939851697e-04  1.3643822542210786e-04  1.3978548711804381e-04  1.4433104157325719e-04  1.5113840467005475e-04  1.6998510482884148e-04  2.2807077687723057e-04  7.8646128065822747e-04  1.9374644907230381e-02  7.1068769292284506e-02  1.4459547005997120e-01  2.3184299710558851e-01  3.3213542707534011e-01  4.4195582341156370e-01  5.4413941320157677e-01  6.5552150183939317e-01  8.0635736560519000e-01  9.9445784835832485e-01  9.9755744448338701e-01  9.9973924258222946e-01  9.9977517058371479e-01  9.9918125122444590e-01  9.0658113832083853e-01  7.4468118010433504e-01  6.1564300698277019e-01  4.8899350652034090e-01  3.6963973489031599e-01  2.6065694558866653e-01  1.6616246112340236e-01  9.0353591378854833e-02  3.7245062521086711e-02  6.8523518718474558e-03  2.9141457275295567e-04  1.7135754701919052e-04  1.4806704623127390e-04  1.4071506195312112e-04  1.3617073373829497e-04  1.3286184292700927e-04  1.3063076518675989e-04  1.2910609951861617e-04  1.2799541602802184e-04  1.2716297554793570e-04  1.2657210190871208e-04  1.2622158932911297e-04  1.2611146765879080e-04  1.2623987823818212e-04  1.2660756144517723e-04  1.2721728938856040e-04  1.2807159294416930e-04  1.2922859297206601e-04  1.3084638938669826e-04  1.3320442499743622e-04  1.3700077806467486e-04  1.4197758137274384e-04  1.5295211220589503e-04  1.8021616789326632e-04  2.8337346080619709e-04  3.1722355769125956e-03  3.1677825140379132e-02  8.7023497370655359e-02  1.6384170299376805e-01  2.5776944596800344e-01  3.6686100177086650e-01  4.8851543724770663e-01  6.0979127007360090e-01  7.4147546837286227e-01  9.4014839217325019e-01  9.9945571249416776e-01  9.9979941003154227e-01  9.9964369369878170e-01  9.9982834506980034e-01  9.9988622747777522e-01  9.9977163260660462e-01  9.9910168422146783e-01  9.1176895671308367e-01  7.6789123723864328e-01  6.3665328445793534e-01  5.0854658531357255e-01  3.8730136396223963e-01  2.7729326871014942e-01  1.8262402675820186e-01  1.0607676093014054e-01  5.0968503464459879e-02  1.4742131788318426e-02  6.9993228286057156e-04  2.2240286102967154e-04  1.6240953466937154e-04  1.4366132758221012e-04  1.3589392250634892e-04  1.3209938328244915e-04  1.2989869191749605e-04  1.2842848253063013e-04  1.2737605244599482e-04  1.2665149207108622e-04  1.2623595340536148e-04  1.2611471337470423e-04  1.2628002747101932e-04  1.2674393533769539e-04  1.2753625476388057e-04  1.2868271256722910e-04  1.3035421114132836e-04  1.3297019926119437e-04  1.3760500104589154e-04  1.4832339182582660e-04  1.6839833344083893e-04  2.2020581247259784e-04  5.5659511984302765e-04  9.2253227301257752e-03  4.5733909142074695e-02  1.0444561279471123e-01  1.8030101130447837e-01  2.7488103634885713e-01  3.8558455641045630e-01  5.0849702171543998e-01  6.3644476835070463e-01  7.6510235733174514e-01  9.3946926782360429e-01  9.9929415996595439e-01  9.9977839431481808e-01  9.9988607238949412e-01  9.9981471829516622e-01  9.9981824017628951e-01  9.9989476581266168e-01  9.9982531176122436e-01  9.9959837339775071e-01  9.9848784319284822e-01  8.8439218212562687e-01  7.6367260286007821e-01  6.3890204778534421e-01  5.1563560983410806e-01  3.9846280983164450e-01  2.9251721256134011e-01  2.0157479222870939e-01  1.2759475710856272e-01  7.1899039951888621e-02  3.4100671949424628e-02  1.2599033887605674e-02  9.1301166143257888e-04  2.9624574637076532e-04  2.0433656227900231e-04  1.7430955312835029e-04  1.6014826095626255e-04  1.5226894042322158e-04  1.4754382088660078e-04  1.4477379587922855e-04  1.4337324298658886e-04  1.4301227716397090e-04  1.4358827234861027e-04  1.4521608732222298e-04  1.4822064329444773e-04  1.5305103060117293e-04  1.6103682648639742e-04  1.7508892987202457e-04  2.0286683022773173e-04  2.8558629334796728e-04  7.7079058789164849e-04  1.0826155411669819e-02  3.0102576718085628e-02  6.9620807046831962e-02  1.2643425845277029e-01  1.9961177619313661e-01  2.9061373824953596e-01  3.9763477236473521e-01  5.1596238423284380e-01  6.4084845971664606e-01  7.6301262688946592e-01  8.9809721054138791e-01  9.9857560572997306e-01  9.9959500930257139e-01  9.9981915110344177e-01  9.9989212628079205e-01  9.9982922589714585e-01  9.9966630676903967e-01  9.9984241856849054e-01  9.9976975126790424e-01  9.9958108610717200e-01  9.9881757821141071e-01  9.6138453762289988e-01  8.5643815710633098e-01  7.4927908228146134e-01  6.3476077635591144e-01  5.2003031355975016e-01  4.1113230834277509e-01  3.1319606176229625e-01  2.2947567861540086e-01  1.6141064211476169e-01  1.0880292976544284e-01  7.1212970824683031e-02  4.5502474405327023e-02  2.6722113233678395e-02  1.4637710459357810e-02  1.0101830136062341e-02  6.2134670593512941e-03  2.8544392807045892e-03  1.6170872138351825e-03  1.1824973948320737e-03  1.0151565192327884e-03  9.6749247272876425e-04  1.0060687636779227e-03  1.1577605805115111e-03  1.5533857295967832e-03  2.6560560370158105e-03  5.7091864084502526e-03  9.7706253547401624e-03  1.3553364557799369e-02  2.3531518493119456e-02  4.0579028647507495e-02  7.0101506366019334e-02  1.0874753183250488e-01  1.6049653842554765e-01  2.2809256304257206e-01  3.1212716833943588e-01  4.1100102442335085e-01  5.2095734937122373e-01  6.3682122489643567e-01  7.5206826991117426e-01  8.6065788016459344e-01  9.6968744189682399e-01  9.9877551405726572e-01  9.9953663081443012e-01  9.9974959756092630e-01  9.9983214352727379e-01  9.9974946966089984e-01  9.9754297084333343e-01  9.9927340021660238e-01  9.9922132550214038e-01  9.9894508319984221e-01  9.9852928697896626e-01  9.7859756628677785e-01  9.0984030339812194e-01  8.3052370187856306e-01  7.3499899182047213e-01  6.3247018975040148e-01  5.2966383894534252e-01  4.3299104705336644e-01  3.4709748118069050e-01  2.7454526952198677e-01  2.1605599921380023e-01  1.7073430756386068e-01  1.3650573746752334e-01  1.1158502303826942e-01  9.4527678330208059e-02  8.3032399022488226e-02  7.5058693280391817e-02  6.9212092993013688e-02  6.4832627103291518e-02  6.2262273773723703e-02  6.0898310897715552e-02  6.0367020849411417e-02  6.0649629850307453e-02  6.1867358226369504e-02  6.4249073672536045e-02  6.8226767099285018e-02  7.4507423800553849e-02  8.3050778900499792e-02  9.4548238299940482e-02  1.1189988983084462e-01  1.3666901660680836e-01  1.7040753497547589e-01  2.1539963056606615e-01  2.7397577000759565e-01  3.4698583416058315e-01  4.3361773503995477e-01  5.3110793558604941e-01  6.3486264633874934e-01  7.3832088458678113e-01  8.3439594362508607e-01  9.1737592399841650e-01  9.7882411045128470e-01  9.9849923476696301e-01  9.9882983692436011e-01  9.9921946472889667e-01  9.9936938975776579e-01  9.9897620113161600e-01  3.3901184101954124e-01  6.4696008470443533e-01  8.0566944260915163e-01  9.0124096371848506e-01  9.4136787707772696e-01  9.4516847803838733e-01  9.2322743967238163e-01  8.7712103595716051e-01  8.0888874940707400e-01  7.2721941660612510e-01  6.3933692318178481e-01  5.5252874644935701e-01  4.726008726