<?xml version="1.0"?>
<VTKFile type="UnstructuredGrid"  version="0.1"  >
<UnstructuredGrid>
<Piece  NumberOfPoints="2601" NumberOfCells="5000">
<Points>
<DataArray  type="Float64"  NumberOfComponents="3"  format="ascii">0 0 0  0.03 0 0  0.06 0 0  0.09 0 0  0.12 0 0  0.15 0 0  0.18 0 0  0.21 0 0  0.24 0 0  0.27 0 0  0.3 0 0  0.33 0 0  0.36 0 0  0.39 0 0  0.42 0 0  0.45 0 0  0.48 0 0  0.51 0 0  0.54 0 0  0.57 0 0  0.6 0 0  0.63 0 0  0.66 0 0  0.6899999999999999 0 0  0.72 0 0  0.75 0 0  0.78 0 0  0.8100000000000001 0 0  0.84 0 0  0.87 0 0  0.9 0 0  0.93 0 0  0.96 0 0  0.99 0 0  1.02 0 0  1.05 0 0  1.08 0 0  1.11 0 0  1.14 0 0  1.17 0 0  1.2 0 0  1.23 0 0  1.26 0 0  1.29 0 0  1.32 0 0  1.35 0 0  1.38 0 0  1.41 0 0  1.44 0 0  1.47 0 0  1.5 0 0  0 0.02 0  0.03 0.02 0  0.06 0.02 0  0.09 0.02 0  0.12 0.02 0  0.15 0.02 0  0.18 0.02 0  0.21 0.02 0  0.24 0.02 0  0.27 0.02 0  0.3 0.02 0  0.33 0.02 0  0.36 0.02 0  0.39 0.02 0  0.42 0.02 0  0.45 0.02 0  0.48 0.02 0  0.51 0.02 0  0.54 0.02 0  0.57 0.02 0  0.6 0.02 0  0.63 0.02 0  0.66 0.02 0  0.6899999999999999 0.02 0  0.72 0.02 0  0.75 0.02 0  0.78 0.02 0  0.8100000000000001 0.02 0  0.84 0.02 0  0.87 0.02 0  0.9 0.02 0  0.93 0.02 0  0.96 0.02 0  0.99 0.02 0  1.02 0.02 0  1.05 0.02 0  1.08 0.02 0  1.11 0.02 0  1.14 0.02 0  1.17 0.02 0  1.2 0.02 0  1.23 0.02 0  1.26 0.02 0  1.29 0.02 0  1.32 0.02 0  1.35 0.02 0  1.38 0.02 0  1.41 0.02 0  1.44 0.02 0  1.47 0.02 0  1.5 0.02 0  0 0.04 0  0.03 0.04 0  0.06 0.04 0  0.09 0.04 0  0.12 0.04 0  0.15 0.04 0  0.18 0.04 0  0.21 0.04 0  0.24 0.04 0  0.27 0.04 0  0.3 0.04 0  0.33 0.04 0  0.36 0.04 0  0.39 0.04 0  0.42 0.04 0  0.45 0.04 0  0.48 0.04 0  0.51 0.04 0  0.54 0.04 0  0.57 0.04 0  0.6 0.04 0  0.63 0.04 0  0.66 0.04 0  0.6899999999999999 0.04 0  0.72 0.04 0  0.75 0.04 0  0.78 0.04 0  0.8100000000000001 0.04 0  0.84 0.04 0  0.87 0.04 0  0.9 0.04 0  0.93 0.04 0  0.96 0.04 0  0.99 0.04 0  1.02 0.04 0  1.05 0.04 0  1.08 0.04 0  1.11 0.04 0  1.14 0.04 0  1.17 0.04 0  1.2 0.04 0  1.23 0.04 0  1.26 0.04 0  1.29 0.04 0  1.32 0.04 0  1.35 0.04 0  1.38 0.04 0  1.41 0.04 0  1.44 0.04 0  1.47 0.04 0  1.5 0.04 0  0 0.06 0  0.03 0.06 0  0.06 0.06 0  0.09 0.06 0  0.12 0.06 0  0.15 0.06 0  0.18 0.06 0  0.21 0.06 0  0.24 0.06 0  0.27 0.06 0  0.3 0.06 0  0.33 0.06 0  0.36 0.06 0  0.39 0.06 0  0.42 0.06 0  0.45 0.06 0  0.48 0.06 0  0.51 0.06 0  0.54 0.06 0  0.57 0.06 0  0.6 0.06 0  0.63 0.06 0  0.66 0.06 0  0.6899999999999999 0.06 0  0.72 0.06 0  0.75 0.06 0  0.78 0.06 0  0.8100000000000001 0.06 0  0.84 0.06 0  0.87 0.06 0  0.9 0.06 0  0.93 0.06 0  0.96 0.06 0  0.99 0.06 0  1.02 0.06 0  1.05 0.06 0  1.08 0.06 0  1.11 0.06 0  1.14 0.06 0  1.17 0.06 0  1.2 0.06 0  1.23 0.06 0  1.26 0.06 0  1.29 0.06 0  1.32 0.06 0  1.35 0.06 0  1.38 0.06 0  1.41 0.06 0  1.44 0.06 0  1.47 0.06 0  1.5 0.06 0  0 0.08 0  0.03 0.08 0  0.06 0.08 0  0.09 0.08 0  0.12 0.08 0  0.15 0.08 0  0.18 0.08 0  0.21 0.08 0  0.24 0.08 0  0.27 0.08 0  0.3 0.08 0  0.33 0.08 0  0.36 0.08 0  0.39 0.08 0  0.42 0.08 0  0.45 0.08 0  0.48 0.08 0  0.51 0.08 0  0.54 0.08 0  0.57 0.08 0  0.6 0.08 0  0.63 0.08 0  0.66 0.08 0  0.6899999999999999 0.08 0  0.72 0.08 0  0.75 0.08 0  0.78 0.08 0  0.8100000000000001 0.08 0  0.84 0.08 0  0.87 0.08 0  0.9 0.08 0  0.93 0.08 0  0.96 0.08 0  0.99 0.08 0  1.02 0.08 0  1.05 0.08 0  1.08 0.08 0  1.11 0.08 0  1.14 0.08 0  1.17 0.08 0  1.2 0.08 0  1.23 0.08 0  1.26 0.08 0  1.29 0.08 0  1.32 0.08 0  1.35 0.08 0  1.38 0.08 0  1.41 0.08 0  1.44 0.08 0  1.47 0.08 0  1.5 0.08 0  0 0.1 0  0.03 0.1 0  0.06 0.1 0  0.09 0.1 0  0.12 0.1 0  0.15 0.1 0  0.18 0.1 0  0.21 0.1 0  0.24 0.1 0  0.27 0.1 0  0.3 0.1 0  0.33 0.1 0  0.36 0.1 0  0.39 0.1 0  0.42 0.1 0  0.45 0.1 0  0.48 0.1 0  0.51 0.1 0  0.54 0.1 0  0.57 0.1 0  0.6 0.1 0  0.63 0.1 0  0.66 0.1 0  0.6899999999999999 0.1 0  0.72 0.1 0  0.75 0.1 0  0.78 0.1 0  0.8100000000000001 0.1 0  0.84 0.1 0  0.87 0.1 0  0.9 0.1 0  0.93 0.1 0  0.96 0.1 0  0.99 0.1 0  1.02 0.1 0  1.05 0.1 0  1.08 0.1 0  1.11 0.1 0  1.14 0.1 0  1.17 0.1 0  1.2 0.1 0  1.23 0.1 0  1.26 0.1 0  1.29 0.1 0  1.32 0.1 0  1.35 0.1 0  1.38 0.1 0  1.41 0.1 0  1.44 0.1 0  1.47 0.1 0  1.5 0.1 0  0 0.12 0  0.03 0.12 0  0.06 0.12 0  0.09 0.12 0  0.12 0.12 0  0.15 0.12 0  0.18 0.12 0  0.21 0.12 0  0.24 0.12 0  0.27 0.12 0  0.3 0.12 0  0.33 0.12 0  0.36 0.12 0  0.39 0.12 0  0.42 0.12 0  0.45 0.12 0  0.48 0.12 0  0.51 0.12 0  0.54 0.12 0  0.57 0.12 0  0.6 0.12 0  0.63 0.12 0  0.66 0.12 0  0.6899999999999999 0.12 0  0.72 0.12 0  0.75 0.12 0  0.78 0.12 0  0.8100000000000001 0.12 0  0.84 0.12 0  0.87 0.12 0  0.9 0.12 0  0.93 0.12 0  0.96 0.12 0  0.99 0.12 0  1.02 0.12 0  1.05 0.12 0  1.08 0.12 0  1.11 0.12 0  1.14 0.12 0  1.17 0.12 0  1.2 0.12 0  1.23 0.12 0  1.26 0.12 0  1.29 0.12 0  1.32 0.12 0  1.35 0.12 0  1.38 0.12 0  1.41 0.12 0  1.44 0.12 0  1.47 0.12 0  1.5 0.12 0  0 0.14 0  0.03 0.14 0  0.06 0.14 0  0.09 0.14 0  0.12 0.14 0  0.15 0.14 0  0.18 0.14 0  0.21 0.14 0  0.24 0.14 0  0.27 0.14 0  0.3 0.14 0  0.33 0.14 0  0.36 0.14 0  0.39 0.14 0  0.42 0.14 0  0.45 0.14 0  0.48 0.14 0  0.51 0.14 0  0.54 0.14 0  0.57 0.14 0  0.6 0.14 0  0.63 0.14 0  0.66 0.14 0  0.6899999999999999 0.14 0  0.72 0.14 0  0.75 0.14 0  0.78 0.14 0  0.8100000000000001 0.14 0  0.84 0.14 0  0.87 0.14 0  0.9 0.14 0  0.93 0.14 0  0.96 0.14 0  0.99 0.14 0  1.02 0.14 0  1.05 0.14 0  1.08 0.14 0  1.11 0.14 0  1.14 0.14 0  1.17 0.14 0  1.2 0.14 0  1.23 0.14 0  1.26 0.14 0  1.29 0.14 0  1.32 0.14 0  1.35 0.14 0  1.38 0.14 0  1.41 0.14 0  1.44 0.14 0  1.47 0.14 0  1.5 0.14 0  0 0.16 0  0.03 0.16 0  0.06 0.16 0  0.09 0.16 0  0.12 0.16 0  0.15 0.16 0  0.18 0.16 0  0.21 0.16 0  0.24 0.16 0  0.27 0.16 0  0.3 0.16 0  0.33 0.16 0  0.36 0.16 0  0.39 0.16 0  0.42 0.16 0  0.45 0.16 0  0.48 0.16 0  0.51 0.16 0  0.54 0.16 0  0.57 0.16 0  0.6 0.16 0  0.63 0.16 0  0.66 0.16 0  0.6899999999999999 0.16 0  0.72 0.16 0  0.75 0.16 0  0.78 0.16 0  0.8100000000000001 0.16 0  0.84 0.16 0  0.87 0.16 0  0.9 0.16 0  0.93 0.16 0  0.96 0.16 0  0.99 0.16 0  1.02 0.16 0  1.05 0.16 0  1.08 0.16 0  1.11 0.16 0  1.14 0.16 0  1.17 0.16 0  1.2 0.16 0  1.23 0.16 0  1.26 0.16 0  1.29 0.16 0  1.32 0.16 0  1.35 0.16 0  1.38 0.16 0  1.41 0.16 0  1.44 0.16 0  1.47 0.16 0  1.5 0.16 0  0 0.18 0  0.03 0.18 0  0.06 0.18 0  0.09 0.18 0  0.12 0.18 0  0.15 0.18 0  0.18 0.18 0  0.21 0.18 0  0.24 0.18 0  0.27 0.18 0  0.3 0.18 0  0.33 0.18 0  0.36 0.18 0  0.39 0.18 0  0.42 0.18 0  0.45 0.18 0  0.48 0.18 0  0.51 0.18 0  0.54 0.18 0  0.57 0.18 0  0.6 0.18 0  0.63 0.18 0  0.66 0.18 0  0.6899999999999999 0.18 0  0.72 0.18 0  0.75 0.18 0  0.78 0.18 0  0.8100000000000001 0.18 0  0.84 0.18 0  0.87 0.18 0  0.9 0.18 0  0.93 0.18 0  0.96 0.18 0  0.99 0.18 0  1.02 0.18 0  1.05 0.18 0  1.08 0.18 0  1.11 0.18 0  1.14 0.18 0  1.17 0.18 0  1.2 0.18 0  1.23 0.18 0  1.26 0.18 0  1.29 0.18 0  1.32 0.18 0  1.35 0.18 0  1.38 0.18 0  1.41 0.18 0  1.44 0.18 0  1.47 0.18 0  1.5 0.18 0  0 0.2 0  0.03 0.2 0  0.06 0.2 0  0.09 0.2 0  0.12 0.2 0  0.15 0.2 0  0.18 0.2 0  0.21 0.2 0  0.24 0.2 0  0.27 0.2 0  0.3 0.2 0  0.33 0.2 0  0.36 0.2 0  0.39 0.2 0  0.42 0.2 0  0.45 0.2 0  0.48 0.2 0  0.51 0.2 0  0.54 0.2 0  0.57 0.2 0  0.6 0.2 0  0.63 0.2 0  0.66 0.2 0  0.6899999999999999 0.2 0  0.72 0.2 0  0.75 0.2 0  0.78 0.2 0  0.8100000000000001 0.2 0  0.84 0.2 0  0.87 0.2 0  0.9 0.2 0  0.93 0.2 0  0.96 0.2 0  0.99 0.2 0  1.02 0.2 0  1.05 0.2 0  1.08 0.2 0  1.11 0.2 0  1.14 0.2 0  1.17 0.2 0  1.2 0.2 0  1.23 0.2 0  1.26 0.2 0  1.29 0.2 0  1.32 0.2 0  1.35 0.2 0  1.38 0.2 0  1.41 0.2 0  1.44 0.2 0  1.47 0.2 0  1.5 0.2 0  0 0.22 0  0.03 0.22 0  0.06 0.22 0  0.09 0.22 0  0.12 0.22 0  0.15 0.22 0  0.18 0.22 0  0.21 0.22 0  0.24 0.22 0  0.27 0.22 0  0.3 0.22 0  0.33 0.22 0  0.36 0.22 0  0.39 0.22 0  0.42 0.22 0  0.45 0.22 0  0.48 0.22 0  0.51 0.22 0  0.54 0.22 0  0.57 0.22 0  0.6 0.22 0  0.63 0.22 0  0.66 0.22 0  0.6899999999999999 0.22 0  0.72 0.22 0  0.75 0.22 0  0.78 0.22 0  0.8100000000000001 0.22 0  0.84 0.22 0  0.87 0.22 0  0.9 0.22 0  0.93 0.22 0  0.96 0.22 0  0.99 0.22 0  1.02 0.22 0  1.05 0.22 0  1.08 0.22 0  1.11 0.22 0  1.14 0.22 0  1.17 0.22 0  1.2 0.22 0  1.23 0.22 0  1.26 0.22 0  1.29 0.22 0  1.32 0.22 0  1.35 0.22 0  1.38 0.22 0  1.41 0.22 0  1.44 0.22 0  1.47 0.22 0  1.5 0.22 0  0 0.24 0  0.03 0.24 0  0.06 0.24 0  0.09 0.24 0  0.12 0.24 0  0.15 0.24 0  0.18 0.24 0  0.21 0.24 0  0.24 0.24 0  0.27 0.24 0  0.3 0.24 0  0.33 0.24 0  0.36 0.24 0  0.39 0.24 0  0.42 0.24 0  0.45 0.24 0  0.48 0.24 0  0.51 0.24 0  0.54 0.24 0  0.57 0.24 0  0.6 0.24 0  0.63 0.24 0  0.66 0.24 0  0.6899999999999999 0.24 0  0.72 0.24 0  0.75 0.24 0  0.78 0.24 0  0.8100000000000001 0.24 0  0.84 0.24 0  0.87 0.24 0  0.9 0.24 0  0.93 0.24 0  0.96 0.24 0  0.99 0.24 0  1.02 0.24 0  1.05 0.24 0  1.08 0.24 0  1.11 0.24 0  1.14 0.24 0  1.17 0.24 0  1.2 0.24 0  1.23 0.24 0  1.26 0.24 0  1.29 0.24 0  1.32 0.24 0  1.35 0.24 0  1.38 0.24 0  1.41 0.24 0  1.44 0.24 0  1.47 0.24 0  1.5 0.24 0  0 0.26 0  0.03 0.26 0  0.06 0.26 0  0.09 0.26 0  0.12 0.26 0  0.15 0.26 0  0.18 0.26 0  0.21 0.26 0  0.24 0.26 0  0.27 0.26 0  0.3 0.26 0  0.33 0.26 0  0.36 0.26 0  0.39 0.26 0  0.42 0.26 0  0.45 0.26 0  0.48 0.26 0  0.51 0.26 0  0.54 0.26 0  0.57 0.26 0  0.6 0.26 0  0.63 0.26 0  0.66 0.26 0  0.6899999999999999 0.26 0  0.72 0.26 0  0.75 0.26 0  0.78 0.26 0  0.8100000000000001 0.26 0  0.84 0.26 0  0.87 0.26 0  0.9 0.26 0  0.93 0.26 0  0.96 0.26 0  0.99 0.26 0  1.02 0.26 0  1.05 0.26 0  1.08 0.26 0  1.11 0.26 0  1.14 0.26 0  1.17 0.26 0  1.2 0.26 0  1.23 0.26 0  1.26 0.26 0  1.29 0.26 0  1.32 0.26 0  1.35 0.26 0  1.38 0.26 0  1.41 0.26 0  1.44 0.26 0  1.47 0.26 0  1.5 0.26 0  0 0.28 0  0.03 0.28 0  0.06 0.28 0  0.09 0.28 0  0.12 0.28 0  0.15 0.28 0  0.18 0.28 0  0.21 0.28 0  0.24 0.28 0  0.27 0.28 0  0.3 0.28 0  0.33 0.28 0  0.36 0.28 0  0.39 0.28 0  0.42 0.28 0  0.45 0.28 0  0.48 0.28 0  0.51 0.28 0  0.54 0.28 0  0.57 0.28 0  0.6 0.28 0  0.63 0.28 0  0.66 0.28 0  0.6899999999999999 0.28 0  0.72 0.28 0  0.75 0.28 0  0.78 0.28 0  0.8100000000000001 0.28 0  0.84 0.28 0  0.87 0.28 0  0.9 0.28 0  0.93 0.28 0  0.96 0.28 0  0.99 0.28 0  1.02 0.28
[...]
<PointData  Scalars="sensitivity"> 
<DataArray  type="Float64"  Name="sensitivity"  format="ascii">-1.1215728850357719e-06  -1.7713832030990480e-05  -6.9347612506806002e-05  -1.6788181392942013e-04  -3.1124736836048026e-04  -4.8073547910409872e-04  -6.5099044177052711e-04  -8.0032181541016170e-04  -9.1577095193214563e-04  -9.9404944140098705e-04  -1.0394998432430482e-03  -1.0602364912482040e-03  -1.0644515633241346e-03  -1.0583855512830240e-03  -1.0461111689761353e-03  -1.0303733520878992e-03  -1.0133973013341910e-03  -9.9703558121871667e-04  -9.8251202142730031e-04  -9.7030654823253531e-04  -9.6036354091372917e-04  -9.5244597136502466e-04  -9.4638959946310010e-04  -9.4215596336779794e-04  -9.3975313282546719e-04  -9.3915114045606837e-04  -9.4027110468457580e-04  -9.4305641657474037e-04  -9.4757912882264671e-04  -9.5408721767596769e-04  -9.6287998718183436e-04  -9.7396634339277574e-04  -9.8665713330215463e-04  -9.9948558151901745e-04  -1.0107944985393656e-03  -1.0196008230514814e-03  -1.0255755436432343e-03  -1.0276730394581048e-03  -1.0225487940585794e-03  -1.0041191253101164e-03  -9.6467617092378481e-04  -8.9730144813390551e-04  -7.9859136775197175e-04  -6.7011250403561787e-04  -5.1899474457823983e-04  -3.5906097617446697e-04  -2.1144331205402714e-04  -9.8898181195635414e-05  -3.2743000339345449e-05  -4.5289422534556942e-06  -2.2136364864043874e-08  -9.7123743789838614e-06  -9.1600901341709051e-05  -3.4561847423945035e-04  -8.6084837320522269e-04  -1.6431216783423057e-03  -2.5980519759138156e-03  -3.5826616845767338e-03  -4.4663204094145008e-03  -5.1644155064364504e-03  -5.6480732034237709e-03  -5.9360549437798924e-03  -6.0735570159383264e-03  -6.1092569390458961e-03  -6.0813184118040983e-03  -6.0146459809823777e-03  -5.9255363652216380e-03  -5.8271104463769952e-03  -5.7307226389723158e-03  -5.6443161523265046e-03  -5.5713348136133597e-03  -5.5117073932968745e-03  -5.4639743641127572e-03  -5.4269995484704956e-03  -5.4004681500113075e-03  -5.3844611652283259e-03  -5.3788814750043131e-03  -5.3832786389619545e-03  -5.3971908201932766e-03  -5.4207967340852131e-03  -5.4553793228760642e-03  -5.5029048746158800e-03  -5.5642364741145239e-03  -5.6365028596000091e-03  -5.7117884349545955e-03  -5.7798745450154130e-03  -5.8340736354071899e-03  -5.8730659772301564e-03  -5.8937026649947943e-03  -5.8805524093844931e-03  -5.8015083804784659e-03  -5.6126326257432213e-03  -5.2711056122196854e-03  -4.7519278161851277e-03  -4.0577479298272712e-03  -3.2208779258947741e-03  -2.3091569318624181e-03  -1.4323236036108402e-03  -7.2448113276782616e-04  -2.7629466620520191e-04  -6.6546372593708975e-05  -3.0972499600251142e-06  -2.9080682898435143e-05  -1.8311904397908519e-04  -5.2361799749211417e-04  -1.2044265527794700e-03  -2.2232981046449800e-03  -3.4442912656056589e-03  -4.6843970988098916e-03  -5.7830464971730076e-03  -6.6367944103099515e-03  -7.2118601270893309e-03  -7.5376749330445161e-03  -7.6788855645808550e-03  -7.7016443179604398e-03  -7.6537527950787058e-03  -7.5625455162097056e-03  -7.4443547995633932e-03  -7.3144032334356733e-03  -7.1880963008676864e-03  -7.0764974017924016e-03  -6.9837504417340204e-03  -6.9087582291151471e-03  -6.8487586629990445e-03  -6.8019761952768480e-03  -6.7681524891712343e-03  -6.7476350737720519e-03  -6.7403755376287764e-03  -6.7456351332345439e-03  -6.7624963097572084e-03  -6.7909170401197474e-03  -6.8326948581171323e-03  -6.8912675206321047e-03  -6.9692885567690559e-03  -7.0641911427411089e-03  -7.1648526837304397e-03  -7.2550353729973118e-03  -7.3245847164482014e-03  -7.3758112341143637e-03  -7.4122483066596150e-03  -7.4195543387221754e-03  -7.3570961991542968e-03  -7.1643241946930279e-03  -6.7800056755250131e-03  -6.1689978666480058e-03  -5.3344301564914025e-03  -4.3114226825846386e-03  -3.1742025622124152e-03  -2.0426834362251454e-03  -1.0871679349657546e-03  -4.5620687569956339e-04  -1.5223495655584997e-04  -1.5780838496532283e-05  -5.1549757265763683e-05  -3.1385264901890962e-04  -7.6295276557785936e-04  -1.5841167800504342e-03  -2.7280387339332531e-03  -4.0229280125119110e-03  -5.2821415519691143e-03  -6.3572715802542564e-03  -7.1573721041408413e-03  -7.6575085726905273e-03  -7.9003636530773774e-03  -7.9676573106425962e-03  -7.9364428430427365e-03  -7.8545058661284774e-03  -7.7414088355970143e-03  -7.6055145771299236e-03  -7.4596912320965460e-03  -7.3211206090912015e-03  -7.2020781832875099e-03  -7.1056167908177727e-03  -7.0284605684891319e-03  -6.9662899656250917e-03  -6.9170878075547051e-03  -6.8811991820277238e-03  -6.8595942816669650e-03  -6.8524114291409191e-03  -6.8586263079784071e-03  -6.8767214748861102e-03  -6.9060807218133437e-03  -6.9485739291034630e-03  -7.0090075489651566e-03  -7.0926009310278947e-03  -7.1987748359672605e-03  -7.3147598359980456e-03  -7.4181766368300638e-03  -7.4944819001415549e-03  -7.5518364764761356e-03  -7.6068691901789148e-03  -7.6540584195172023e-03  -7.6519351429378962e-03  -7.5296123100333347e-03  -7.2099864179408510e-03  -6.6488872233493217e-03  -5.8547890359074636e-03  -4.8604927253743770e-03  -3.7264210579615012e-03  -2.5339105311643156e-03  -1.4433420781745053e-03  -6.5658975634857140e-04  -2.5431344782176170e-04  -3.4996329229698342e-05  -5.9208479263318572e-05  -4.7683385951722212e-04  -1.2029878061124162e-03  -2.3122408662202987e-03  -3.6216145419619185e-03  -4.9653049645718133e-03  -6.2024850558019123e-03  -7.1889722148682153e-03  -7.8470124367245164e-03  -8.1846380472479618e-03  -8.2726066547947775e-03  -8.2129506046429886e-03  -8.0928292732139716e-03  -7.9566550854893968e-03  -7.8107858408168985e-03  -7.6507975896476640e-03  -7.4854817202583204e-03  -7.3336887558948403e-03  -7.2082132464586458e-03  -7.1097054551602012e-03  -7.0315672841020482e-03  -6.9674865541082594e-03  -6.9154868111010381e-03  -6.8770479790872885e-03  -6.8541162450237031e-03  -6.8471172420455995e-03  -6.8546816465957462e-03  -6.8744948855158292e-03  -6.9050040852978133e-03  -6.9477794358496926e-03  -7.0090042786553099e-03  -7.0973491092472564e-03  -7.2157283948261512e-03  -7.3508062292054295e-03  -7.4726125345142766e-03  -7.5590161152340914e-03  -7.6252503676921780e-03  -7.7076052288964983e-03  -7.8156065426410234e-03  -7.9122130855202831e-03  -7.9163843073244561e-03  -7.7233453494106718e-03  -7.2651403235553160e-03  -6.5743082425245743e-03  -5.6875735270871747e-03  -4.6358372142328444e-03  -3.4562198865791018e-03  -2.1797505220461783e-03  -1.0448724974420911e-03  -3.5167469776159016e-04  -4.7677848045277337e-05  -4.4258948431699349e-05  -7.4166101791477005e-04  -2.4083063217396655e-03  -4.5113989229162389e-03  -5.9234387102294044e-03  -6.7829863754228633e-03  -7.6237577694450104e-03  -8.4350722998386383e-03  -8.9048323238218978e-03  -8.9565653086908521e-03  -8.7675529076987457e-03  -8.5051051083812248e-03  -8.2568397446740813e-03  -8.0476427729865695e-03  -7.8596699236767164e-03  -7.6695528727374045e-03  -7.4808328550097832e-03  -7.3145000239680635e-03  -7.1831992377635072e-03  -7.0837764117079498e-03  -7.0051222946236457e-03  -6.9385585797339978e-03  -6.8826169907216577e-03  -6.8406064172662302e-03  -6.8158436329596329e-03  -6.8091168466249555e-03  -6.8186373289914615e-03  -6.8410894274403338e-03  -6.8735649494950958e-03  -6.9168202909844941e-03  -6.9782040530474701e-03  -7.0707333179378410e-03  -7.2022728474598298e-03  -7.3606164508417237e-03  -7.5067826883215708e-03  -7.6061768072889285e-03  -7.6825020341170945e-03  -7.8006920343806950e-03  -7.9938681733005505e-03  -8.2336651190918157e-03  -8.4257590683514873e-03  -8.4203940489004786e-03  -8.1328433142678833e-03  -7.7124418609981786e-03  -7.3119076611668256e-03  -6.9068055262144481e-03  -6.1228556118826669e-03  -4.2038019697496600e-03  -1.9091040224229086e-03  -4.4449336660146383e-04  -3.8836944498907008e-05  -1.6154339833715321e-04  -3.8128623267354102e-03  -1.2047515600456587e-02  -1.6313179912340506e-02  -1.7571831641996011e-02  -1.4626672779385055e-02  -1.1526427861338564e-02  -1.0331896046807535e-02  -1.0293187467053426e-02  -1.0087520238598270e-02  -9.4935403375766038e-03  -8.8875468070219992e-03  -8.4387593013665729e-03  -8.1349465949744452e-03  -7.9035323714881887e-03  -7.6831529000589930e-03  -7.4686001957462809e-03  -7.2859757188508826e-03  -7.1486815039569470e-03  -7.0487955803066145e-03  -6.9693858233794096e-03  -6.8988864019834031e-03  -6.8369834565430677e-03  -6.7897543426006929e-03  -6.7623588664808346e-03  -6.7559949761847628e-03  -6.7683499015273015e-03  -6.7948685327452914e-03  -6.8307798416937203e-03  -6.8753010446664141e-03  -6.9364536421006318e-03  -7.0325650982151575e-03  -7.1776709694113998e-03  -7.3631829352487797e-03  -7.5410064058901941e-03  -7.6578858495199281e-03  -7.7464591146760289e-03  -7.9127320682452467e-03  -8.2209046141620782e-03  -8.6388444496626783e-03  -9.0691269438390159e-03  -9.3646136960960306e-03  -9.6080960996018355e-03  -1.0525394384951257e-02  -1.2582723929614450e-02  -1.5671233706756556e-02  -1.8831097286747950e-02  -1.6976114129687192e-02  -9.5700324876045774e-03  -1.7428470777947002e-03  -3.2006406806806908e-05  -1.8808908026999047e-03  -1.9176629449747469e-02  -4.6858303136726995e-02  -4.3039507507220257e-02  -3.9105074852152338e-02  -3.7154600679286963e-02  -2.8415260983108485e-02  -1.7822676425311938e-02  -1.2734881190633670e-02  -1.1278885820514490e-02  -1.0368307965299185e-02  -9.4055735558143221e-03  -8.6727303401119317e-03  -8.2157279460668628e-03  -7.9276105884266250e-03  -7.6869050462209810e-03  -7.4545624003186546e-03  -7.2569002575785385e-03  -7.1128532253220246e-03  -7.0117554515149059e-03  -6.9301005892412866e-03  -6.8528748789334079e-03  -6.7817466395863083e-03  -6.7267980046151208e-03  -6.6955931039234988e-03  -6.6897213324104473e-03  -6.7061656051899668e-03  -6.7388165784708987e-03  -6.7803875520466572e-03  -6.8274873325392550e-03  -6.8879744939512834e-03  -6.9866912290694402e-03  -7.1454402828786843e-03  -7.3605414384378780e-03  -7.5801977667686775e-03  -7.7223564060106492e-03  -7.8262811025939377e-03  -8.0470001786199195e-03  -8.4713824662530236e-03  -9.0622961483665908e-03  -9.8633078898811115e-03  -1.1115009894579097e-02  -1.3774409855097683e-02  -1.9275851104911514e-02  -2.7446907552144004e-02  -3.2933380190229136e-02  -3.6912871209700715e-02  -3.9284031384024559e-02  -4.4684295533014055e-02  -2.0848039433007393e-02  -4.6599556598364512e-04  -9.1976360181193900e-03  -4.0577358940185826e-02  -3.7045261622485628e-02  -3.6256674924162798e-02  -3.2773956695087605e-02  -3.7161089038243673e-02  -4.3926223867448183e-02  -3.9137913309521391e-02  -2.4082660499939814e-02  -1.4453890147024270e-02  -1.1176319939428367e-02  -9.7516071065099751e-03  -8.9098485417235095e-03  -8.3531702146150411e-03  -7.9686185479943411e-03  -7.6800876700735318e-03  -7.4328839077783537e-03  -7.2284853445297934e-03  -7.0798978391409225e-03  -6.9777155389360570e-03  -6.8922738781243345e-03  -6.8041119147796538e-03  -6.7186250136193441e-03  -6.6520365839885364e-03  -6.6151359741115833e-03  -6.6098051229186031e-03  -6.6319772844682275e-03  -6.6735177491937647e-03  -6.7237497647337739e-03  -6.7752022558263845e-03  -6.8347307660477580e-03  -6.9362349595204053e-03  -7.1134025622503535e-03  -7.3608631294596657e-03  -7.6475212149806990e-03  -7.8126546849802900e-03  -7.9133604347813580e-03  -8.1530409996570657e-03  -8.6478568355937337e-03  -9.5384433823559513e-03  -1.1781536799079209e-02  -1.6740473192335084e-02  -2.5961247647700726e-02  -3.5227455222797036e-02  -3.7584233035312782e-02  -3.6364753987662340e-02  -3.6422797554936714e-02  -3.7184732235037640e-02  -3.6677923581093418e-02  -6.3493494135945405e-02  -1.1035863245076966e-02  -1.5900253410453143e-02  -3.1932855735105230e-02  -3.2431481922726983e-02  -3.3908540935658441e-02  -3.2937426271120743e-02  -3.3834469431145459e-02  -4.1093185078305471e-02  -5.2180515942619049e-02  -5.1860702396940635e-02  -3.3306477501055386e-02  -1.7407616756162675e-02  -1.1000504974995974e-02  -8.9536587964066505e-03  -8.4305724879887543e-03  -8.1153200645501869e-03  -7.7774941147479883e-03  -7.4638701913358916e-03  -7.2200863006203408e-03  -7.0570753579531856e-03  -6.9520802798598656e-03  -6.8627517879356389e-03  -6.7596061951988038e-03  -6.6527236693005578e-03  -6.5686508733411517e-03  -6.5232394880973821e-03  -6.5185108829308395e-03  -6.5487342376056587e-03  -6.6032244911659235e-03  -6.6670472782808608e-03  -6.7269704088097860e-03  -6.7882040820674795e-03  -6.8988408348078633e-03  -7.1080886360828299e-03  -7.3818489853502822e-03  -7.7346989286280025e-03  -7.9268637598696769e-03  -8.0455847353257150e-03  -8.3651649901019583e-03  -9.4067993002195736e-03  -1.2290249130564238e-02  -1.9320329958864076e-02  -3.3327561077424829e-02  -4.4853331337641807e-02  -4.3768702321073702e-02  -3.6169772423941392e-02  -3.2356483174615744e-02  -3.3423879339569522e-02  -3.5231291009054665e-02  -3.5036659180191151e-02  -3.3938367518389093e-02  -1.8968274288020330e-02  -1.9343706709800030e-02  -3.3215216367546034e-02  -3.0904251720306530e-02  -3.2812197728637270e-02  -3.3876144615799610e-02  -3.4452709581432386e-02  -3.7389407237371469e-02  -4.3991042186176402e-02  -5.2258161321498194e-02  -5.4058656677180135e-02  -3.9603467863518378e-02  -2.1337243803094742e-02  -1.1465066126661292e-02  -8.5126643591697439e-03  -8.0641499192755269e-03  -7.9248457176974308e-03  -7.6452087533762621e-03  -7.3415540616997912e-03  -7.1175151132682008e-03  -6.9876960840524307e-03  -6.8825641880938294e-03  -6.7522441802590066e-03  -6.6105079723236624e-03  -6.4983216896281936e-03  -6.4396011757611171e-03  -6.4360908134406735e-03  -6.4788380291637034e-03  -6.5539845349605079e-03  -6.6420928452729884e-03  -6.7221316559502569e-03  -6.7942872970682142e-03  -6.9209275594933261e-03  -7.1811627048168252e-03  -7.4218770196273912e-03  -7.8639002793864776e-03  -8.0157593844620376e-03  -8.5531901201663096e-03  -9.8486513769590750e-03  -1.3336761084464436e-02  -2.2115065509345160e-02  -3.6375928453543725e-02  -4.8792192890045862e-02  -4.6265039463985934e-02  -3.8093322732298464e-02  -3.4152104235728724e-02  -3.3383756296017066e-02  -3.3198172677966015e-02  -3.1728662535318294e-02  -3.1126531570891937e-02  -3.3805541344613381e-02  -1.8139897463914454e-02  -2.9134617127753205e-02  -4.7550725969569572e-02  -3.7160509618304326e-02  -3.2547582928753850e-02  -3.1922527331776515e-02  -3.2263603519204584e-02  -3.4004717102202937e-02  -3.6956260647034236e-02  -4.0913263493939242e-02  -4.4066070000468881e-02  -4.3012402140944317e-02  -3.7153116338552908e-02  -2.5300476412805178e-02  -1.3065034365280212e-02  -8.4682580517114556e-03  -7.7902731427583072e-03  -7.6649159545177595e-03  -7.4291302445517885e-03  -7.2138910691908371e-03  -7.1086402113001703e-03  -7.0035047467211483e-03  -6.8280784584903078e-03  -6.6294902620846379e-03  -6.4740630340347979e-03  -6.3959643506071827e-03  -6.3953110930168528e-03  -6.4564962032679692e-03  -6.5601063135160556e-03  -6.6803011806238878e-03  -6.7827348250177142e-03  -6.8545042473384292e-03  -6.9642177369751935e-03  -7.2471854994639101e-03  -7.5699586837197110e-03  -7.7662067705288858e-03  -8.9743931799572529e-03  -1.0475632337598019e-02  -1.5923756749247477e-02  -2.2523956406564977e-02  -3.0087987025684954e-02  -4.0521445072399791e-02  -4.3133345292963275e-02  -3.7134509539007807e-02  -3.3117496747696859e-02  -3.1576180141082280e-02  -3.1452710727941688e-02  -3.1470492155160644e-02  -3.2880324419000760e-02  -3.8771961343252823e-02  -4.8879537142486058e-02  -2.6029640466482300e-02  -3.5541983229710757e-02  -6.1457375799086153e-02  -4.7471080234182755e-02  -3.7536911317980565e-02  -3.3063233059759327e-02  -3.1219579133454512e-02  -3.0964394208282627e-02  -3.2468898116983717e-02  -3.4329539712353405e-02  -3.6161196708390908e-02  -3.5563065230706563e-02  -3.2496855082492428e-02  -3.3178136941686587e-02  -3.2741661532296205e-02  -1.8641774269232598e-02  -1.0388593584470517e-02  -8.5294000625553354e-03  -7.6964800221665484e-03  -7.1304486845208941e-03  -7.0213163332450042e-03  -7.0151853784306134e-03  -6.8285710116989477e-03  -6.5662718638778289e-03  -6.3701049861652074e-03  -6.2871634356554918e-03  -6.3034443452761229e-03  -6.3888753545770513e-03  -6.5210159190323361e-03  -6.6746268931656971e-03  -6.8034376970759862e-03  -6.8798591227605069e-03  -7.0081006829160707e-03  -7.4326566037322649e-03  -8.3078188303817770e-03  -9.7503316734070030e-03  -1.2314367602800309e-02  -1.8171521634352955e-02  -2.7011494611104820e-02  -2.9969367029288287e-02  -3.4210768839507306e-02  -3.4738322418390706e-02  -3.2842733419310793e-02  -3.1444801000678257e-02  -3.0261860343086963e-02  -3.0024230956459962e-02  -3.0855674934127799e-02  -3.2924387285978102e-02  -3.7983061227537140e-02  -4.7812585173204247e-02  -6.1485260637222199e-02  -3.4185093533731246e-02  -3.4496298515259601e-02  -6.3735505677016968e-02  -5.1681926629987898e-02  -4.1961429734443410e-02  -3.5990114945661220e-02  -3.3079582982218365e-02  -3.0824709741504804e-02  -3.0223241190977218e-02  -3.0944846205955771e-02  -3.1700747949348199e-02  -3.2381878586933047e-02  -3.0976145531046141e-02  -2.8116589355098646e-02  -3.2032581187930211e-02  -4.1818945125957609e-02  -3.2516117515353882e-02  -1.9719265154169795e-02  -1.4269784899270414e-02  -1.0835189098579265e-02  -9.0597411073997051e-03  -8.3754584549455887e-03  -7.9154103336447207e-03  -7.4182067715368319e-03  -7.0446659904068558e-03  -6.8984954282194913e-03  -6.9343612268267761e-03  -7.0748515510072815e-03  -7.2985534382150720e-03  -7.6396953677509098e-03  -8.1256638805218499e-03  -8.7655683099887253e-03  -9.7499434801521789e-03  -1.1658167541198214e-02  -1.5051190243561840e-02  -2.0459166880541866e-02  -2.9439022933916367e-02  -3.6356205425123744e-02  -3.7395352286582577e-02  -3.4709330374098735e-02  -3.0392233152810547e-02  -2.9335786090671480e-02  -2.9273245038092539e-02  -2.9128626674195985e-02  -2.9221604994702575e-02  -3.0268138083220941e-02  -3.2383401425493917e-02  -3.5577051167633919e-02  -4.1519756607609988e-02  -5.0977131993312455e-02  -6.2984936476551401e-02  -3.5640116837937413e-02  -2.6559161238179727e-02  -5.3461851659706197e-02  -4.7172043025959266e-02  -4.1535088169712610e-02  -3.7476768824119773e-02  -3.4921958524238662e-02  -3.2609061788875474e-02  -3.0320588393385649e-02  -2.9484967281691692e-02  -2.9431300711458500e-02  -2.9428637720955067e-02  -2.9617519398910008e-02  -2.8867187271912006e-02  -2.7382838498607408e-02  -3.0993425448969401e-02  -4.0876854781074133e-02  -4.2210205989503244e-02  -3.5206257223390554e-02  -3.0473895706355208e-02  -2.7097991237271489e-02  -2.3612247086514063e-02  -2.1018837778015581e-02  -1.9472253274166858e-02  -1.8423532279266290e-02  -1.7839018036787165e-02  -1.7708942703494972e-02  -1.7990873053657791e-02  -1.8674850840575435e-02  -1.9854496191997167e-02  -2.1692210422734767e-02  -2.4142358694462955e-02  -2.6830770924671239e-02  -2.9986120861541187e-02  -3.4166593348060895e-02  -3.7578440365879762e-02  -3.9621646620614633e-02  -4.0497387644008669e-02  -3.4322650958179199e-02  -2.8688675811798573e-02  -2.7249403354851424e-02  -2.7495785018215813e-02  -2.8078953775690221e-02  -2.8665437474595906e-02  -2.9730799147208067e-02  -3.1679388462320372e-02  -3.3948523861335220e-02  -3.6627036457957243e-02  -4.0495200531572573e-02  -4.5896723538553161e-02  -5.2209820335744790e-02  -2.9607112564050644e-02  -1.8087070008444839e-02  -3.7420729188037273e-02  -3.7441102873105495e-02  -3.7105610257185298e-02  -3.6390755216244089e-02  -3.5504915661730370e-02  -3.4091194733681912e-02  -3.1781029021868794e-02  -2.9678619194321101e-02  -2.8566915194151058e-02  -2.7913734810499941e-02  -2.7375930230991000e-02  -2.7276505493871225e-02  -2.7408382399287404e-02  -2.7676044175771731e-02  -3.0276391489727376e-02  -3.6560910530927138e-02  -4.3076826360267537e-02  -4.7376985926450864e-02  -5.0558870416985716e-02  -5.1447753251816823e-02  -4.8559221772736742e-02  -4.5015802795091195e-02  -4.3361720606700425e-02  -4.3390500226779309e-02  -4.4001521324248470e-02  -4.4600577171944884e-02  -4.5385623335759025e-02  -4.6390522274590784e-02  -4.6969427525216885e-02  -4.6580692441167582e-02  -