<?xml version="1.0"?>
<VTKFile type="UnstructuredGrid"  version="0.1"  >
<UnstructuredGrid>
<Piece  NumberOfPoints="2601" NumberOfCells="5000">
<Points>
<DataArray  type="Float64"  NumberOfComponents="3"  format="ascii">0 0 0  0.03 0 0  0.06 0 0  0.09 0 0  0.12 0 0  0.15 0 0  0.18 0 0  0.21 0 0  0.24 0 0  0.27 0 0  0.3 0 0  0.33 0 0  0.36 0 0  0.39 0 0  0.42 0 0  0.45 0 0  0.48 0 0  0.51 0 0  0.54 0 0  0.57 0 0  0.6 0 0  0.63 0 0  0.66 0 0  0.6899999999999999 0 0  0.72 0 0  0.75 0 0  0.78 0 0  0.8100000000000001 0 0  0.84 0 0  0.87 0 0  0.9 0 0  0.93 0 0  0.96 0 0  0.99 0 0  1.02 0 0  1.05 0 0  1.08 0 0  1.11 0 0  1.14 0 0  1.17 0 0  1.2 0 0  1.23 0 0  1.26 0 0  1.29 0 0  1.32 0 0  1.35 0 0  1.38 0 0  1.41 0 0  1.44 0 0  1.47 0 0  1.5 0 0  0 0.02 0  0.03 0.02 0  0.06 0.02 0  0.09 0.02 0  0.12 0.02 0  0.15 0.02 0  0.18 0.02 0  0.21 0.02 0  0.24 0.02 0  0.27 0.02 0  0.3 0.02 0  0.33 0.02 0  0.36 0.02 0  0.39 0.02 0  0.42 0.02 0  0.45 0.02 0  0.48 0.02 0  0.51 0.02 0  0.54 0.02 0  0.57 0.02 0  0.6 0.02 0  0.63 0.02 0  0.66 0.02 0  0.6899999999999999 0.02 0  0.72 0.02 0  0.75 0.02 0  0.78 0.02 0  0.8100000000000001 0.02 0  0.84 0.02 0  0.87 0.02 0  0.9 0.02 0  0.93 0.02 0  0.96 0.02 0  0.99 0.02 0  1.02 0.02 0  1.05 0.02 0  1.08 0.02 0  1.11 0.02 0  1.14 0.02 0  1.17 0.02 0  1.2 0.02 0  1.23 0.02 0  1.26 0.02 0  1.29 0.02 0  1.32 0.02 0  1.35 0.02 0  1.38 0.02 0  1.41 0.02 0  1.44 0.02 0  1.47 0.02 0  1.5 0.02 0  0 0.04 0  0.03 0.04 0  0.06 0.04 0  0.09 0.04 0  0.12 0.04 0  0.15 0.04 0  0.18 0.04 0  0.21 0.04 0  0.24 0.04 0  0.27 0.04 0  0.3 0.04 0  0.33 0.04 0  0.36 0.04 0  0.39 0.04 0  0.42 0.04 0  0.45 0.04 0  0.48 0.04 0  0.51 0.04 0  0.54 0.04 0  0.57 0.04 0  0.6 0.04 0  0.63 0.04 0  0.66 0.04 0  0.6899999999999999 0.04 0  0.72 0.04 0  0.75 0.04 0  0.78 0.04 0  0.8100000000000001 0.04 0  0.84 0.04 0  0.87 0.04 0  0.9 0.04 0  0.93 0.04 0  0.96 0.04 0  0.99 0.04 0  1.02 0.04 0  1.05 0.04 0  1.08 0.04 0  1.11 0.04 0  1.14 0.04 0  1.17 0.04 0  1.2 0.04 0  1.23 0.04 0  1.26 0.04 0  1.29 0.04 0  1.32 0.04 0  1.35 0.04 0  1.38 0.04 0  1.41 0.04 0  1.44 0.04 0  1.47 0.04 0  1.5 0.04 0  0 0.06 0  0.03 0.06 0  0.06 0.06 0  0.09 0.06 0  0.12 0.06 0  0.15 0.06 0  0.18 0.06 0  0.21 0.06 0  0.24 0.06 0  0.27 0.06 0  0.3 0.06 0  0.33 0.06 0  0.36 0.06 0  0.39 0.06 0  0.42 0.06 0  0.45 0.06 0  0.48 0.06 0  0.51 0.06 0  0.54 0.06 0  0.57 0.06 0  0.6 0.06 0  0.63 0.06 0  0.66 0.06 0  0.6899999999999999 0.06 0  0.72 0.06 0  0.75 0.06 0  0.78 0.06 0  0.8100000000000001 0.06 0  0.84 0.06 0  0.87 0.06 0  0.9 0.06 0  0.93 0.06 0  0.96 0.06 0  0.99 0.06 0  1.02 0.06 0  1.05 0.06 0  1.08 0.06 0  1.11 0.06 0  1.14 0.06 0  1.17 0.06 0  1.2 0.06 0  1.23 0.06 0  1.26 0.06 0  1.29 0.06 0  1.32 0.06 0  1.35 0.06 0  1.38 0.06 0  1.41 0.06 0  1.44 0.06 0  1.47 0.06 0  1.5 0.06 0  0 0.08 0  0.03 0.08 0  0.06 0.08 0  0.09 0.08 0  0.12 0.08 0  0.15 0.08 0  0.18 0.08 0  0.21 0.08 0  0.24 0.08 0  0.27 0.08 0  0.3 0.08 0  0.33 0.08 0  0.36 0.08 0  0.39 0.08 0  0.42 0.08 0  0.45 0.08 0  0.48 0.08 0  0.51 0.08 0  0.54 0.08 0  0.57 0.08 0  0.6 0.08 0  0.63 0.08 0  0.66 0.08 0  0.6899999999999999 0.08 0  0.72 0.08 0  0.75 0.08 0  0.78 0.08 0  0.8100000000000001 0.08 0  0.84 0.08 0  0.87 0.08 0  0.9 0.08 0  0.93 0.08 0  0.96 0.08 0  0.99 0.08 0  1.02 0.08 0  1.05 0.08 0  1.08 0.08 0  1.11 0.08 0  1.14 0.08 0  1.17 0.08 0  1.2 0.08 0  1.23 0.08 0  1.26 0.08 0  1.29 0.08 0  1.32 0.08 0  1.35 0.08 0  1.38 0.08 0  1.41 0.08 0  1.44 0.08 0  1.47 0.08 0  1.5 0.08 0  0 0.1 0  0.03 0.1 0  0.06 0.1 0  0.09 0.1 0  0.12 0.1 0  0.15 0.1 0  0.18 0.1 0  0.21 0.1 0  0.24 0.1 0  0.27 0.1 0  0.3 0.1 0  0.33 0.1 0  0.36 0.1 0  0.39 0.1 0  0.42 0.1 0  0.45 0.1 0  0.48 0.1 0  0.51 0.1 0  0.54 0.1 0  0.57 0.1 0  0.6 0.1 0  0.63 0.1 0  0.66 0.1 0  0.6899999999999999 0.1 0  0.72 0.1 0  0.75 0.1 0  0.78 0.1 0  0.8100000000000001 0.1 0  0.84 0.1 0  0.87 0.1 0  0.9 0.1 0  0.93 0.1 0  0.96 0.1 0  0.99 0.1 0  1.02 0.1 0  1.05 0.1 0  1.08 0.1 0  1.11 0.1 0  1.14 0.1 0  1.17 0.1 0  1.2 0.1 0  1.23 0.1 0  1.26 0.1 0  1.29 0.1 0  1.32 0.1 0  1.35 0.1 0  1.38 0.1 0  1.41 0.1 0  1.44 0.1 0  1.47 0.1 0  1.5 0.1 0  0 0.12 0  0.03 0.12 0  0.06 0.12 0  0.09 0.12 0  0.12 0.12 0  0.15 0.12 0  0.18 0.12 0  0.21 0.12 0  0.24 0.12 0  0.27 0.12 0  0.3 0.12 0  0.33 0.12 0  0.36 0.12 0  0.39 0.12 0  0.42 0.12 0  0.45 0.12 0  0.48 0.12 0  0.51 0.12 0  0.54 0.12 0  0.57 0.12 0  0.6 0.12 0  0.63 0.12 0  0.66 0.12 0  0.6899999999999999 0.12 0  0.72 0.12 0  0.75 0.12 0  0.78 0.12 0  0.8100000000000001 0.12 0  0.84 0.12 0  0.87 0.12 0  0.9 0.12 0  0.93 0.12 0  0.96 0.12 0  0.99 0.12 0  1.02 0.12 0  1.05 0.12 0  1.08 0.12 0  1.11 0.12 0  1.14 0.12 0  1.17 0.12 0  1.2 0.12 0  1.23 0.12 0  1.26 0.12 0  1.29 0.12 0  1.32 0.12 0  1.35 0.12 0  1.38 0.12 0  1.41 0.12 0  1.44 0.12 0  1.47 0.12 0  1.5 0.12 0  0 0.14 0  0.03 0.14 0  0.06 0.14 0  0.09 0.14 0  0.12 0.14 0  0.15 0.14 0  0.18 0.14 0  0.21 0.14 0  0.24 0.14 0  0.27 0.14 0  0.3 0.14 0  0.33 0.14 0  0.36 0.14 0  0.39 0.14 0  0.42 0.14 0  0.45 0.14 0  0.48 0.14 0  0.51 0.14 0  0.54 0.14 0  0.57 0.14 0  0.6 0.14 0  0.63 0.14 0  0.66 0.14 0  0.6899999999999999 0.14 0  0.72 0.14 0  0.75 0.14 0  0.78 0.14 0  0.8100000000000001 0.14 0  0.84 0.14 0  0.87 0.14 0  0.9 0.14 0  0.93 0.14 0  0.96 0.14 0  0.99 0.14 0  1.02 0.14 0  1.05 0.14 0  1.08 0.14 0  1.11 0.14 0  1.14 0.14 0  1.17 0.14 0  1.2 0.14 0  1.23 0.14 0  1.26 0.14 0  1.29 0.14 0  1.32 0.14 0  1.35 0.14 0  1.38 0.14 0  1.41 0.14 0  1.44 0.14 0  1.47 0.14 0  1.5 0.14 0  0 0.16 0  0.03 0.16 0  0.06 0.16 0  0.09 0.16 0  0.12 0.16 0  0.15 0.16 0  0.18 0.16 0  0.21 0.16 0  0.24 0.16 0  0.27 0.16 0  0.3 0.16 0  0.33 0.16 0  0.36 0.16 0  0.39 0.16 0  0.42 0.16 0  0.45 0.16 0  0.48 0.16 0  0.51 0.16 0  0.54 0.16 0  0.57 0.16 0  0.6 0.16 0  0.63 0.16 0  0.66 0.16 0  0.6899999999999999 0.16 0  0.72 0.16 0  0.75 0.16 0  0.78 0.16 0  0.8100000000000001 0.16 0  0.84 0.16 0  0.87 0.16 0  0.9 0.16 0  0.93 0.16 0  0.96 0.16 0  0.99 0.16 0  1.02 0.16 0  1.05 0.16 0  1.08 0.16 0  1.11 0.16 0  1.14 0.16 0  1.17 0.16 0  1.2 0.16 0  1.23 0.16 0  1.26 0.16 0  1.29 0.16 0  1.32 0.16 0  1.35 0.16 0  1.38 0.16 0  1.41 0.16 0  1.44 0.16 0  1.47 0.16 0  1.5 0.16 0  0 0.18 0  0.03 0.18 0  0.06 0.18 0  0.09 0.18 0  0.12 0.18 0  0.15 0.18 0  0.18 0.18 0  0.21 0.18 0  0.24 0.18 0  0.27 0.18 0  0.3 0.18 0  0.33 0.18 0  0.36 0.18 0  0.39 0.18 0  0.42 0.18 0  0.45 0.18 0  0.48 0.18 0  0.51 0.18 0  0.54 0.18 0  0.57 0.18 0  0.6 0.18 0  0.63 0.18 0  0.66 0.18 0  0.6899999999999999 0.18 0  0.72 0.18 0  0.75 0.18 0  0.78 0.18 0  0.8100000000000001 0.18 0  0.84 0.18 0  0.87 0.18 0  0.9 0.18 0  0.93 0.18 0  0.96 0.18 0  0.99 0.18 0  1.02 0.18 0  1.05 0.18 0  1.08 0.18 0  1.11 0.18 0  1.14 0.18 0  1.17 0.18 0  1.2 0.18 0  1.23 0.18 0  1.26 0.18 0  1.29 0.18 0  1.32 0.18 0  1.35 0.18 0  1.38 0.18 0  1.41 0.18 0  1.44 0.18 0  1.47 0.18 0  1.5 0.18 0  0 0.2 0  0.03 0.2 0  0.06 0.2 0  0.09 0.2 0  0.12 0.2 0  0.15 0.2 0  0.18 0.2 0  0.21 0.2 0  0.24 0.2 0  0.27 0.2 0  0.3 0.2 0  0.33 0.2 0  0.36 0.2 0  0.39 0.2 0  0.42 0.2 0  0.45 0.2 0  0.48 0.2 0  0.51 0.2 0  0.54 0.2 0  0.57 0.2 0  0.6 0.2 0  0.63 0.2 0  0.66 0.2 0  0.6899999999999999 0.2 0  0.72 0.2 0  0.75 0.2 0  0.78 0.2 0  0.8100000000000001 0.2 0  0.84 0.2 0  0.87 0.2 0  0.9 0.2 0  0.93 0.2 0  0.96 0.2 0  0.99 0.2 0  1.02 0.2 0  1.05 0.2 0  1.08 0.2 0  1.11 0.2 0  1.14 0.2 0  1.17 0.2 0  1.2 0.2 0  1.23 0.2 0  1.26 0.2 0  1.29 0.2 0  1.32 0.2 0  1.35 0.2 0  1.38 0.2 0  1.41 0.2 0  1.44 0.2 0  1.47 0.2 0  1.5 0.2 0  0 0.22 0  0.03 0.22 0  0.06 0.22 0  0.09 0.22 0  0.12 0.22 0  0.15 0.22 0  0.18 0.22 0  0.21 0.22 0  0.24 0.22 0  0.27 0.22 0  0.3 0.22 0  0.33 0.22 0  0.36 0.22 0  0.39 0.22 0  0.42 0.22 0  0.45 0.22 0  0.48 0.22 0  0.51 0.22 0  0.54 0.22 0  0.57 0.22 0  0.6 0.22 0  0.63 0.22 0  0.66 0.22 0  0.6899999999999999 0.22 0  0.72 0.22 0  0.75 0.22 0  0.78 0.22 0  0.8100000000000001 0.22 0  0.84 0.22 0  0.87 0.22 0  0.9 0.22 0  0.93 0.22 0  0.96 0.22 0  0.99 0.22 0  1.02 0.22 0  1.05 0.22 0  1.08 0.22 0  1.11 0.22 0  1.14 0.22 0  1.17 0.22 0  1.2 0.22 0  1.23 0.22 0  1.26 0.22 0  1.29 0.22 0  1.32 0.22 0  1.35 0.22 0  1.38 0.22 0  1.41 0.22 0  1.44 0.22 0  1.47 0.22 0  1.5 0.22 0  0 0.24 0  0.03 0.24 0  0.06 0.24 0  0.09 0.24 0  0.12 0.24 0  0.15 0.24 0  0.18 0.24 0  0.21 0.24 0  0.24 0.24 0  0.27 0.24 0  0.3 0.24 0  0.33 0.24 0  0.36 0.24 0  0.39 0.24 0  0.42 0.24 0  0.45 0.24 0  0.48 0.24 0  0.51 0.24 0  0.54 0.24 0  0.57 0.24 0  0.6 0.24 0  0.63 0.24 0  0.66 0.24 0  0.6899999999999999 0.24 0  0.72 0.24 0  0.75 0.24 0  0.78 0.24 0  0.8100000000000001 0.24 0  0.84 0.24 0  0.87 0.24 0  0.9 0.24 0  0.93 0.24 0  0.96 0.24 0  0.99 0.24 0  1.02 0.24 0  1.05 0.24 0  1.08 0.24 0  1.11 0.24 0  1.14 0.24 0  1.17 0.24 0  1.2 0.24 0  1.23 0.24 0  1.26 0.24 0  1.29 0.24 0  1.32 0.24 0  1.35 0.24 0  1.38 0.24 0  1.41 0.24 0  1.44 0.24 0  1.47 0.24 0  1.5 0.24 0  0 0.26 0  0.03 0.26 0  0.06 0.26 0  0.09 0.26 0  0.12 0.26 0  0.15 0.26 0  0.18 0.26 0  0.21 0.26 0  0.24 0.26 0  0.27 0.26 0  0.3 0.26 0  0.33 0.26 0  0.36 0.26 0  0.39 0.26 0  0.42 0.26 0  0.45 0.26 0  0.48 0.26 0  0.51 0.26 0  0.54 0.26 0  0.57 0.26 0  0.6 0.26 0  0.63 0.26 0  0.66 0.26 0  0.6899999999999999 0.26 0  0.72 0.26 0  0.75 0.26 0  0.78 0.26 0  0.8100000000000001 0.26 0  0.84 0.26 0  0.87 0.26 0  0.9 0.26 0  0.93 0.26 0  0.96 0.26 0  0.99 0.26 0  1.02 0.26 0  1.05 0.26 0  1.08 0.26 0  1.11 0.26 0  1.14 0.26 0  1.17 0.26 0  1.2 0.26 0  1.23 0.26 0  1.26 0.26 0  1.29 0.26 0  1.32 0.26 0  1.35 0.26 0  1.38 0.26 0  1.41 0.26 0  1.44 0.26 0  1.47 0.26 0  1.5 0.26 0  0 0.28 0  0.03 0.28 0  0.06 0.28 0  0.09 0.28 0  0.12 0.28 0  0.15 0.28 0  0.18 0.28 0  0.21 0.28 0  0.24 0.28 0  0.27 0.28 0  0.3 0.28 0  0.33 0.28 0  0.36 0.28 0  0.39 0.28 0  0.42 0.28 0  0.45 0.28 0  0.48 0.28 0  0.51 0.28 0  0.54 0.28 0  0.57 0.28 0  0.6 0.28 0  0.63 0.28 0  0.66 0.28 0  0.6899999999999999 0.28 0  0.72 0.28 0  0.75 0.28 0  0.78 0.28 0  0.8100000000000001 0.28 0  0.84 0.28 0  0.87 0.28 0  0.9 0.28 0  0.93 0.28 0  0.96 0.28 0  0.99 0.28 0  1.02 0.28
[...]
<PointData  Scalars="sensitivity"> 
<DataArray  type="Float64"  Name="sensitivity"  format="ascii">-1.0556949646947983e-06  -1.5999175722905479e-05  -6.6430428437173135e-05  -1.6930708028256195e-04  -3.2494147106103765e-04  -5.1255815343649656e-04  -7.0357051650880127e-04  -8.7515325903099852e-04  -1.0149073981881194e-03  -1.1192881478084666e-03  -1.1901679130411058e-03  -1.2319675400791644e-03  -1.2499449544522861e-03  -1.2493534671535059e-03  -1.2350714027586165e-03  -1.2114419048032457e-03  -1.1821977557737403e-03  -1.1504328354649490e-03  -1.1186155069679374e-03  -1.0886392293115259e-03  -1.0618987666897956e-03  -1.0393785506861285e-03  -1.0217418184796918e-03  -1.0094117789876790e-03  -1.0026383443812138e-03  -1.0015460789763713e-03  -1.0061608755234396e-03  -1.0164142333135696e-03  -1.0321248673944784e-03  -1.0529580557468990e-03  -1.0783641697669011e-03  -1.1074999168864184e-03  -1.1391392903156170e-03  -1.1715845217282123e-03  -1.2025886621535467e-03  -1.2292995807847049e-03  -1.2482303815559378e-03  -1.2552599839645441e-03  -1.2456815986564786e-03  -1.2143527824972405e-03  -1.1560176225294840e-03  -1.0659405558778561e-03  -9.4108908178132747e-04  -7.8236626820348063e-04  -5.9774870851640413e-04  -4.0500834587325896e-04  -2.3114505872651094e-04  -1.0340639365708321e-04  -3.2380669959023912e-05  -4.4687972919970204e-06  -3.0813307213861712e-08  -8.1880533754434154e-06  -7.2451596953928700e-05  -2.8960985855400553e-04  -7.6209743841358809e-04  -1.5099744021853212e-03  -2.4434661109925312e-03  -3.4202173227077469e-03  -4.3167986014682547e-03  -5.0602907278383229e-03  -5.6251423266059893e-03  -6.0165982417249506e-03  -6.2552285786987268e-03  -6.3672089530823570e-03  -6.3793724798766440e-03  -6.3169767582137290e-03  -6.2027304384109170e-03  -6.0563269929905040e-03  -5.8942315694698886e-03  -5.7296897194461897e-03  -5.5729424038384904e-03  -5.4315909425868454e-03  -5.3110408097978810e-03  -5.2149624606951956e-03  -5.1457209595266677e-03  -5.1047380122022611e-03  -5.0927612655817375e-03  -5.1100260914325683e-03  -5.1563028959850385e-03  -5.2308278064029682e-03  -5.3321178718991110e-03  -5.4576763150095678e-03  -5.6036025681189469e-03  -5.7641393250877689e-03  -5.9312091503456073e-03  -6.0940038200126426e-03  -6.2386766211093569e-03  -6.3481739415388360e-03  -6.4022254003017424e-03  -6.3775472731233953e-03  -6.2484571955989847e-03  -5.9882709539375717e-03  -5.5721425452412814e-03  -4.9821346438525434e-03  -4.2167823187118222e-03  -3.3060285203466264e-03  -2.3264212166427215e-03  -1.4035267742062939e-03  -6.8174519879521834e-04  -2.4611748608408110e-04  -5.7311007362742767e-05  -2.9526907018100639e-06  -2.3358847565283845e-05  -1.4052340713280391e-04  -4.2835161100216579e-04  -1.0405984606515514e-03  -1.9828131370792142e-03  -3.1266651988472193e-03  -4.3002321022570520e-03  -5.3634397300246972e-03  -6.2366663685583497e-03  -6.8946954211987887e-03  -7.3463958385559368e-03  -7.6169081721032521e-03  -7.7372410608916231e-03  -7.7390802418371403e-03  -7.6523893612437015e-03  -7.5043050573106963e-03  -7.3185105746603682e-03  -7.1148703319872941e-03  -6.9093640964599974e-03  -6.7143153015688647e-03  -6.5388259233402444e-03  -6.3893185047421263e-03  -6.2701068509655533e-03  -6.1839337593604460e-03  -6.1324270852757693e-03  -6.1164403310008724e-03  -6.1362589048705330e-03  -6.1916641601438534e-03  -6.2818531282093481e-03  -6.4052149553699804e-03  -6.5589686677633291e-03  -6.7386768229172498e-03  -6.9376746905641688e-03  -7.1464899674024245e-03  -7.3523408885913391e-03  -7.5387779117569607e-03  -7.6855420491345854e-03  -7.7685970598809547e-03  -7.7603392782517391e-03  -7.6302354137124401e-03  -7.3466277749905757e-03  -6.8798975696078915e-03  -6.2073228366908324e-03  -5.3218158867351312e-03  -4.2510542077745586e-03  -3.0751556468770558e-03  -1.9286761856684123e-03  -9.8640398796860716e-04  -3.8867616445459557e-04  -1.2268803565616728e-04  -1.3891163936194687e-05  -3.7538365235014913e-05  -2.3524863837137339e-04  -6.3589846869924530e-04  -1.3959029368626318e-03  -2.4540157377943754e-03  -3.6440070747574284e-03  -4.8077464105499047e-03  -5.8288165251853992e-03  -6.6463274680034160e-03  -7.2485466470220226e-03  -7.6503003439239064e-03  -7.8775295514759165e-03  -7.9603508648596125e-03  -7.9293386813719165e-03  -7.8136227743813586e-03  -7.6399331296776122e-03  -7.4318376673574368e-03  -7.2091573494547558e-03  -6.9877743710891069e-03  -6.7798320724471702e-03  -6.5941794684434207e-03  -6.4369361197708554e-03  -6.3120979905334045e-03  -6.2221164753643561e-03  -6.1683910091720811e-03  -6.1516349131614462e-03  -6.1720951082276116e-03  -6.2296202711662214e-03  -6.3235772148746098e-03  -6.4526162633118085e-03  -6.6142867385354815e-03  -6.8045093606248531e-03  -7.0169435761214920e-03  -7.2423529556548934e-03  -7.4680866225476112e-03  -7.6777742217713860e-03  -7.8512830546084156e-03  -7.9647824171667891e-03  -7.9910498141342583e-03  -7.9000855096430737e-03  -7.6612758068257819e-03  -7.2452576876899741e-03  -6.6294817942638669e-03  -5.7994506513827917e-03  -4.7728969886828157e-03  -3.6091131742831159e-03  -2.4095436157174402e-03  -1.3311295377123682e-03  -5.6593276358864045e-04  -1.9592851041876804e-04  -2.8564125775889703e-05  -3.4613733135914853e-05  -3.5614704210108549e-04  -1.0581547583405953e-03  -2.1393884199095779e-03  -3.3495858607622995e-03  -4.5131748214844300e-03  -5.5754142888933917e-03  -6.4707196708649458e-03  -7.1655006744871597e-03  -7.6631104676647480e-03  -7.9790791813215359e-03  -8.1356256627004610e-03  -8.1597158273980664e-03  -8.0793634407205165e-03  -7.9217812087607371e-03  -7.7125970960934013e-03  -7.4748014290072383e-03  -7.2277666085512051e-03  -6.9868858691334457e-03  -6.7637618093338812e-03  -6.5666619191854609e-03  -6.4011005894713926e-03  -6.2704882362076544e-03  -6.1767670185211366e-03  -6.1209508263051667e-03  -6.1035199626739882e-03  -6.1246534461502312e-03  -6.1842997879274497e-03  -6.2820901601915108e-03  -6.4170945187533241e-03  -6.5874176149899703e-03  -6.7896205266377782e-03  -7.0179910632528911e-03  -7.2638274698426765e-03  -7.5149161717852500e-03  -7.7553138169294371e-03  -7.9653034831043638e-03  -8.1219657498402178e-03  -8.1997263441495796e-03  -8.1697177356927133e-03  -8.0025920844142961e-03  -7.6711446078657885e-03  -7.1662484589678698e-03  -6.4687200521294074e-03  -5.5780021954643048e-03  -4.5198115911191756e-03  -3.3480111734332527e-03  -2.0885672573709027e-03  -9.5272161974139591e-04  -2.6044666415063212e-04  -3.2869516243528482e-05  -3.8534955986108066e-05  -6.7067274722116231e-04  -2.6304251137596896e-03  -5.0464765914916615e-03  -6.4099667864304689e-03  -6.9072634304021613e-03  -7.1829862177844360e-03  -7.5287337020275699e-03  -7.9028529322117957e-03  -8.2132730769793622e-03  -8.4035801254690040e-03  -8.4637000015057098e-03  -8.4095812847530052e-03  -8.2640352604323106e-03  -8.0511462596568589e-03  -7.7951207190879472e-03  -7.5183324391656673e-03  -7.2395765116053225e-03  -6.9735376759506047e-03  -6.7310499470268018e-03  -6.5195616936554596e-03  -6.3437209636938918e-03  -6.2060952814548178e-03  -6.1079010320136979e-03  -6.0496110243629993e-03  -6.0313829606149704e-03  -6.0533016246218114e-03  -6.1154492700668285e-03  -6.2178160707633380e-03  -6.3600495169629312e-03  -6.5410402987126403e-03  -6.7582835911066752e-03  -7.0069931381576776e-03  -7.2792202881737222e-03  -7.5633191799885525e-03  -7.8438452448771016e-03  -8.1016241234300266e-03  -8.3158350143910705e-03  -8.4622826006710162e-03  -8.5134220942578581e-03  -8.4482752395756335e-03  -8.2619312351492041e-03  -7.9943102024906156e-03  -7.7146295065587123e-03  -7.4982579308648812e-03  -7.3259492502198414e-03  -6.7688147970160857e-03  -4.6618181452373125e-03  -1.9346441266079146e-03  -3.8097889965555900e-04  -2.1547085586554691e-05  -3.9246265885352534e-04  -2.8475642913351430e-03  -1.0774483861592823e-02  -1.8863720484982010e-02  -2.1169782756896793e-02  -1.8705845690020886e-02  -1.4480058800798026e-02  -1.0971410740126409e-02  -9.4066806364992098e-03  -9.0308806564547896e-03  -8.9561757644602159e-03  -8.8718473725616139e-03  -8.7161780939244964e-03  -8.4891769190360983e-03  -8.2072737226789576e-03  -7.8926658311025775e-03  -7.5672890023428165e-03  -7.2492609525133377e-03  -6.9522970693548644e-03  -6.6862538357760400e-03  -6.4575312599957496e-03  -6.2696047184444921e-03  -6.1238837609454803e-03  -6.0206040566037899e-03  -5.9595240204023412e-03  -5.9403846497635962e-03  -5.9631507805823639e-03  -6.0280740917193400e-03  -6.1356023862981449e-03  -6.2861271659737684e-03  -6.4795901919198892e-03  -6.7148077505483949e-03  -6.9883152974714834e-03  -7.2930654837842163e-03  -7.6180818553605928e-03  -7.9486713712218666e-03  -8.2665125240385783e-03  -8.5524635067181030e-03  -8.7853558729792721e-03  -8.9576650547351696e-03  -9.0748315792599059e-03  -9.2481716116450327e-03  -9.8829255886818627e-03  -1.1627744609674355e-02  -1.4622846936563853e-02  -1.8532817694932979e-02  -2.1468769667856030e-02  -1.9102101961091907e-02  -1.1406080226013195e-02  -2.2200126241438034e-03  -8.3083665052062321e-05  -1.5559916272314292e-03  -1.7114262071784105e-02  -2.9523044088388902e-02  -3.0626169229023548e-02  -3.0643109635246201e-02  -3.0046806076014506e-02  -2.8880061624204711e-02  -2.3905795304424150e-02  -1.5912816661476075e-02  -1.1377720057261590e-02  -9.9035557927874586e-03  -9.4115718401223576e-03  -9.0880693241713675e-03  -8.7555752841322713e-03  -8.3890391271937113e-03  -8.0032931869268350e-03  -7.6195374855398219e-03  -7.2547784886162073e-03  -6.9212754033016162e-03  -6.6277601698033397e-03  -6.3793841025988783e-03  -6.1780375774697837e-03  -6.0235518804640613e-03  -5.9148763868952332e-03  -5.8508652144760474e-03  -5.8307491090693565e-03  -5.8543525826935221e-03  -5.9221328511230272e-03  -6.0350924266217246e-03  -6.1945339041901666e-03  -6.4017368445788798e-03  -6.6573810465007663e-03  -6.9599078776080630e-03  -7.3033096992964975e-03  -7.6775885457908118e-03  -8.0687969025973211e-03  -8.4595641383250209e-03  -8.8335235045610989e-03  -9.2014649804744459e-03  -9.6097515851341717e-03  -1.0281372723107892e-02  -1.2061729918141995e-02  -1.6025108221397650e-02  -2.2957098781608669e-02  -2.8531272752158422e-02  -3.0295606258914868e-02  -3.0805846740066999e-02  -3.0108883024844445e-02  -2.7921310878997085e-02  -1.6472704941721514e-02  -1.0415152859181271e-03  -8.6682311664811953e-03  -3.1101301786981731e-02  -3.1230236762029989e-02  -3.1182923581347392e-02  -3.1217787979671650e-02  -3.1104271626880869e-02  -3.1039485846048091e-02  -3.0404787041036406e-02  -2.8335688334358136e-02  -2.0774586493058390e-02  -1.3489014825866365e-02  -1.0575210867079281e-02  -9.6217355341563261e-03  -9.0819682380696830e-03  -8.5986064026911321e-03  -8.1248933819035203e-03  -7.6721442660691811e-03  -7.2532687977605662e-03  -6.8776550259917017e-03  -6.5530332144201541e-03  -6.2831904983262016e-03  -6.0677546997113989e-03  -5.9043816787378604e-03  -5.7903842832706439e-03  -5.7235152209174555e-03  -5.7024147005020611e-03  -5.7267633871871384e-03  -5.7972509417435775e-03  -5.9155273672397016e-03  -6.0839617602521457e-03  -6.3053927267254029e-03  -6.5832195998182085e-03  -6.9189105851400028e-03  -7.3076732337998482e-03  -7.7399191196963254e-03  -8.2036760695323330e-03  -8.6920929074891396e-03  -9.2025231030931787e-03  -9.8767506958611952e-03  -1.1150193248715723e-02  -1.4026358004827292e-02  -2.0147945941872164e-02  -2.7517541733692346e-02  -3.0234875408151902e-02  -3.1042385181508387e-02  -3.1093006485093853e-02  -3.1156778338539373e-02  -3.1178770083230591e-02  -3.1122705593909773e-02  -3.0990135577095596e-02  -6.4198238890829946e-03  -1.5551657785585170e-02  -3.1433235047144834e-02  -3.1429674911178498e-02  -3.1367035452784277e-02  -3.1393222631721396e-02  -3.1315119842491419e-02  -3.1323243193032924e-02  -3.1277210897713077e-02  -3.0662506848334402e-02  -2.9121251471635721e-02  -2.4494081275545868e-02  -1.5651107042675319e-02  -1.1200139722153489e-02  -9.6522857643112202e-03  -8.8760343084758574e-03  -8.2643142781265860e-03  -7.7247968053756211e-03  -7.2430168211374563e-03  -6.8187425656151711e-03  -6.4593235301504829e-03  -6.1670058126478220e-03  -5.9376703763133467e-03  -5.7659276598562570e-03  -5.6471158671383736e-03  -5.5776908357669823e-03  -5.5556556267515886e-03  -5.5805772940983106e-03  -5.6533866967474582e-03  -5.7764908967267497e-03  -5.9534410288611421e-03  -6.1886086856615561e-03  -6.4895031471616828e-03  -6.8629819621740876e-03  -7.3060803863288721e-03  -7.8085796790232321e-03  -8.3774417714600879e-03  -9.0438289311809590e-03  -9.9431792774025331e-03  -1.1888664196238108e-02  -1.5924509295937816e-02  -2.3459665671047396e-02  -2.9036479160163345e-02  -3.0617024372646535e-02  -3.1000589053857462e-02  -3.1257289856499323e-02  -3.1359127656195550e-02  -3.1312086999902670e-02  -3.1296728695471246e-02  -3.1321230732692787e-02  -3.1395841913539883e-02  -1.5664518317860851e-02  -1.8864540053091461e-02  -3.2821116856582323e-02  -3.1545994854166134e-02  -3.1448271373054303e-02  -3.1309099078884156e-02  -3.1359049988260522e-02  -3.1393964670191697e-02  -3.1437347205625077e-02  -3.1363201936003858e-02  -3.0899424760737409e-02  -2.9676404764970608e-02  -2.6573241198510220e-02  -1.8203873225434961e-02  -1.2070229880292958e-02  -9.6188299856109910e-03  -8.5261038844743585e-03  -7.8102660360312472e-03  -7.2372422937561336e-03  -6.7484381369735799e-03  -6.3475663172785730e-03  -6.0320375915479084e-03  -5.7894974969156408e-03  -5.6102453641430333e-03  -5.4874176869246089e-03  -5.4158836243628694e-03  -5.3929897079757752e-03  -5.4183095062787096e-03  -5.4930392268067590e-03  -5.6204043176159325e-03  -5.8054359918245238e-03  -6.0536990645931720e-03  -6.3785936416129356e-03  -6.8003483459347699e-03  -7.3240220622663174e-03  -7.9418098024687540e-03  -8.7569430514016812e-03  -1.0091980484865053e-02  -1.2654849749595727e-02  -1.8009738621941235e-02  -2.6103372566808371e-02  -2.9595490785664199e-02  -3.0804116798522237e-02  -3.1165020675610115e-02  -3.1237156535806606e-02  -3.1325772974342352e-02  -3.1301798149379542e-02  -3.1328267970875685e-02  -3.1458856545871168e-02  -3.1598479547794642e-02  -3.3156386229817064e-02  -1.7437244570464711e-02  -2.8796887090585279e-02  -4.6824075983783020e-02  -3.6371686268726056e-02  -3.1896551867522153e-02  -3.1393970733790057e-02  -3.1338818867840214e-02  -3.1360673956144100e-02  -3.1376944915727151e-02  -3.1389460892115355e-02  -3.1350840699696569e-02  -3.1102409061606471e-02  -3.0414919875736031e-02  -2.8125658619022668e-02  -2.1812523998486835e-02  -1.4036125224376347e-02  -1.0001014992335494e-02  -8.3251746296534868e-03  -7.4099996900539597e-03  -6.7523380301705684e-03  -6.2706670978509554e-03  -5.9188109215728467e-03  -5.6565692596346811e-03  -5.4665070160929679e-03  -5.3384061041769747e-03  -5.2641724760254622e-03  -5.2402513314776678e-03  -5.2666230148871746e-03  -5.3448484522231349e-03  -5.4791028137981951e-03  -5.6786221201658672e-03  -5.9499256952702962e-03  -6.3154742456675243e-03  -6.8431506607207794e-03  -7.5890459992885972e-03  -8.6687291273613073e-03  -1.0681179649189300e-02  -1.4378979761798652e-02  -2.0912462902326637e-02  -2.7437760338070993e-02  -3.0416408434105386e-02  -3.1056565327982202e-02  -3.1182871014308958e-02  -3.1259211989851293e-02  -3.1322308984241369e-02  -3.1323125640729525e-02  -3.1358741174603411e-02  -3.1412420949161329e-02  -3.2100850335973131e-02  -3.8143966758011051e-02  -4.8444700215090869e-02  -2.5632834681741188e-02  -3.5263423288260889e-02  -6.0805135666467336e-02  -4.6362928646902772e-02  -3.5977148472859911e-02  -3.1883102376105497e-02  -3.1445580280086004e-02  -3.1364392580297995e-02  -3.1351688608099185e-02  -3.1349606235358173e-02  -3.1347254693261724e-02  -3.1336605908560244e-02  -3.1200508249601747e-02  -3.0742320866908212e-02  -2.8894957369303580e-02  -2.6278925810558226e-02  -1.8626475089102788e-02  -1.2856177023431802e-02  -9.6631219402809280e-03  -7.9104186175792159e-03  -6.9375835614641276e-03  -6.3516162764384477e-03  -5.9580905220751211e-03  -5.6938463378935246e-03  -5.5264837920063654e-03  -5.4329366974072571e-03  -5.4041414724392244e-03  -5.4406570328561291e-03  -5.5464654852390074e-03  -5.7323562040323744e-03  -6.0285232336731165e-03  -6.4618093781208261e-03  -7.1086474916758841e-03  -8.2326948269917620e-03  -1.0143497140814682e-02  -1.3132398162978818e-02  -1.8125153235858102e-02  -2.5206567801420752e-02  -2.9400108071431182e-02  -3.0763572102466042e-02  -3.1064146529720529e-02  -3.1228831116327207e-02  -3.1310936249093223e-02  -3.1345624589968160e-02  -3.1348917489306273e-02  -3.1361368463607209e-02  -3.1427769575476119e-02  -3.2070408227321885e-02  -3.6802041220801503e-02  -4.6773064980672137e-02  -6.0777518354519972e-02  -3.3874533368407234e-02  -3.4203078619930771e-02  -6.3090813583925945e-02  -5.0582314009521970e-02  -4.0228546992930332e-02  -3.3737522529231213e-02  -3.1722091213750803e-02  -3.1440777372680563e-02  -3.1376480961794337e-02  -3.1359868479780874e-02  -3.1357264884480825e-02  -3.1335759476039796e-02  -3.1310379390170416e-02  -3.1232156696294245e-02  -3.0935190180668249e-02  -2.9925980722492820e-02  -2.8605517884042392e-02  -2.6311964865051485e-02  -2.1585708837507198e-02  -1.7040086171285610e-02  -1.4070631547591700e-02  -1.2150599467427182e-02  -1.0896307794893404e-02  -1.0112255865362614e-02  -9.6360461069652844e-03  -9.3787162224372202e-03  -9.3007280433666812e-03  -9.3926157417592027e-03  -9.6606835624789538e-03  -1.0142333688679074e-02  -1.0948009595490488e-02  -1.2143013390179822e-02  -1.3851451461057767e-02  -1.6723035080827023e-02  -2.1025123339796777e-02  -2.5926816552314196e-02  -2.8849673805021930e-02  -3.0087079182632627e-02  -3.0884591656443590e-02  -3.1126227220414065e-02  -3.1250105853886982e-02  -3.1357402234661852e-02  -3.1377948968172698e-02  -3.1375801048764286e-02  -3.1378161445863050e-02  -3.1426632211065349e-02  -3.1787011285068820e-02  -3.4015345353345730e-02  -4.0098981996794486e-02  -4.9937884941895508e-02  -6.2327211616373744e-02  -3.5357949115182682e-02  -2.6146857806121221e-02  -5.2751913039468232e-02  -4.6048482993853494e-02  -3.9777919086712063e-02  -3.4973744689542313e-02  -3.2301585353769119e-02  -3.1596689003172189e-02  -3.1426572046831601e-02  -3.1384584855121293e-02  -3.1380637344591199e-02  -3.1383409612370308e-02  -3.1347823157612718e-02  -3.1294459122723273e-02  -3.1260328039056200e-02  -3.1095376649876896e-02  -3.0804495997903986e-02  -3.0607351388543640e-02  -3.0208207925767609e-02  -2.9026672499601947e-02  -2.8633876859883941e-02  -2.8175610126638682e-02  -2.7331094217303207e-02  -2.6699863558462440e-02  -2.6265936442547780e-02  -2.5961959577515171e-02  -2.5818372182901922e-02  -2.5882626321280109e-02  -2.6133743546273701e-02  -2.6531831614680288e-02  -2.7128813434511720e-02  -2.7934608034738746e-02  -2.8419535083179476e-02  -2.8873059724354101e-02  -3.0101154458253281e-02  -3.0634951817008458e-02  -3.0982729232226714e-02  -3.1027998377470643e-02  -3.1138080962106962e-02  -3.1298563092007965e-02  -3.1411567369630751e-02  -3.1418608859460739e-02  -3.1403827847889636e-02  -3.1393413461549426e-02  -3.1431235531863451e-02  -3.1625846236792404e-02  -3.2357275059822659e-02  -3.4771637444451005e-02  -3.9056256641161531e-02  -4.4903704112208662e-02  -5.1488169204679510e-02  -2.9279723108320929e-02  -1.7393287945206927e-02  -3.6776377135571879e-02  -3.6310376054672924e-02  -3.5202648042295427e-02  -3.3807959403264934e-02  -3.2548550446936747e-02  -3.1830944595772626e-02  -3.1531857684365207e-02  -3.1422935676867998e-02  -3.1398374543660464e-02  -3.1414975789262299e-02  -3.1433297182324592e-02  -3.1404179913282856e-02  -3.1343153295170900e-02  -3.1321390800119212e-02  -3.1312365955693269e-02  -3.1324598316153279e-02  -3.1336672548281111e-02  -3.1153993999544792e-02  -3.0895643628901834e-02  -3.0845103317757732e-02  -3.0787673660703993e-02  -3.0735589611267423e-02  -3.0775615105105621e-02  -3.0825520550365540e-02  -3.0794108249758281e-02  -3.0736824238445367e-02  -3.0716565028267171e-02  -3.0745415401442471e-02  -3.0820355953525388e-02  -3.0906120626869218e-02  -