<?xml version="1.0"?>
<VTKFile type="UnstructuredGrid"  version="0.1"  >
<UnstructuredGrid>
<Piece  NumberOfPoints="2601" NumberOfCells="5000">
<Points>
<DataArray  type="Float64"  NumberOfComponents="3"  format="ascii">0 0 0  0.03 0 0  0.06 0 0  0.09 0 0  0.12 0 0  0.15 0 0  0.18 0 0  0.21 0 0  0.24 0 0  0.27 0 0  0.3 0 0  0.33 0 0  0.36 0 0  0.39 0 0  0.42 0 0  0.45 0 0  0.48 0 0  0.51 0 0  0.54 0 0  0.57 0 0  0.6 0 0  0.63 0 0  0.66 0 0  0.6899999999999999 0 0  0.72 0 0  0.75 0 0  0.78 0 0  0.8100000000000001 0 0  0.84 0 0  0.87 0 0  0.9 0 0  0.93 0 0  0.96 0 0  0.99 0 0  1.02 0 0  1.05 0 0  1.08 0 0  1.11 0 0  1.14 0 0  1.17 0 0  1.2 0 0  1.23 0 0  1.26 0 0  1.29 0 0  1.32 0 0  1.35 0 0  1.38 0 0  1.41 0 0  1.44 0 0  1.47 0 0  1.5 0 0  0 0.02 0  0.03 0.02 0  0.06 0.02 0  0.09 0.02 0  0.12 0.02 0  0.15 0.02 0  0.18 0.02 0  0.21 0.02 0  0.24 0.02 0  0.27 0.02 0  0.3 0.02 0  0.33 0.02 0  0.36 0.02 0  0.39 0.02 0  0.42 0.02 0  0.45 0.02 0  0.48 0.02 0  0.51 0.02 0  0.54 0.02 0  0.57 0.02 0  0.6 0.02 0  0.63 0.02 0  0.66 0.02 0  0.6899999999999999 0.02 0  0.72 0.02 0  0.75 0.02 0  0.78 0.02 0  0.8100000000000001 0.02 0  0.84 0.02 0  0.87 0.02 0  0.9 0.02 0  0.93 0.02 0  0.96 0.02 0  0.99 0.02 0  1.02 0.02 0  1.05 0.02 0  1.08 0.02 0  1.11 0.02 0  1.14 0.02 0  1.17 0.02 0  1.2 0.02 0  1.23 0.02 0  1.26 0.02 0  1.29 0.02 0  1.32 0.02 0  1.35 0.02 0  1.38 0.02 0  1.41 0.02 0  1.44 0.02 0  1.47 0.02 0  1.5 0.02 0  0 0.04 0  0.03 0.04 0  0.06 0.04 0  0.09 0.04 0  0.12 0.04 0  0.15 0.04 0  0.18 0.04 0  0.21 0.04 0  0.24 0.04 0  0.27 0.04 0  0.3 0.04 0  0.33 0.04 0  0.36 0.04 0  0.39 0.04 0  0.42 0.04 0  0.45 0.04 0  0.48 0.04 0  0.51 0.04 0  0.54 0.04 0  0.57 0.04 0  0.6 0.04 0  0.63 0.04 0  0.66 0.04 0  0.6899999999999999 0.04 0  0.72 0.04 0  0.75 0.04 0  0.78 0.04 0  0.8100000000000001 0.04 0  0.84 0.04 0  0.87 0.04 0  0.9 0.04 0  0.93 0.04 0  0.96 0.04 0  0.99 0.04 0  1.02 0.04 0  1.05 0.04 0  1.08 0.04 0  1.11 0.04 0  1.14 0.04 0  1.17 0.04 0  1.2 0.04 0  1.23 0.04 0  1.26 0.04 0  1.29 0.04 0  1.32 0.04 0  1.35 0.04 0  1.38 0.04 0  1.41 0.04 0  1.44 0.04 0  1.47 0.04 0  1.5 0.04 0  0 0.06 0  0.03 0.06 0  0.06 0.06 0  0.09 0.06 0  0.12 0.06 0  0.15 0.06 0  0.18 0.06 0  0.21 0.06 0  0.24 0.06 0  0.27 0.06 0  0.3 0.06 0  0.33 0.06 0  0.36 0.06 0  0.39 0.06 0  0.42 0.06 0  0.45 0.06 0  0.48 0.06 0  0.51 0.06 0  0.54 0.06 0  0.57 0.06 0  0.6 0.06 0  0.63 0.06 0  0.66 0.06 0  0.6899999999999999 0.06 0  0.72 0.06 0  0.75 0.06 0  0.78 0.06 0  0.8100000000000001 0.06 0  0.84 0.06 0  0.87 0.06 0  0.9 0.06 0  0.93 0.06 0  0.96 0.06 0  0.99 0.06 0  1.02 0.06 0  1.05 0.06 0  1.08 0.06 0  1.11 0.06 0  1.14 0.06 0  1.17 0.06 0  1.2 0.06 0  1.23 0.06 0  1.26 0.06 0  1.29 0.06 0  1.32 0.06 0  1.35 0.06 0  1.38 0.06 0  1.41 0.06 0  1.44 0.06 0  1.47 0.06 0  1.5 0.06 0  0 0.08 0  0.03 0.08 0  0.06 0.08 0  0.09 0.08 0  0.12 0.08 0  0.15 0.08 0  0.18 0.08 0  0.21 0.08 0  0.24 0.08 0  0.27 0.08 0  0.3 0.08 0  0.33 0.08 0  0.36 0.08 0  0.39 0.08 0  0.42 0.08 0  0.45 0.08 0  0.48 0.08 0  0.51 0.08 0  0.54 0.08 0  0.57 0.08 0  0.6 0.08 0  0.63 0.08 0  0.66 0.08 0  0.6899999999999999 0.08 0  0.72 0.08 0  0.75 0.08 0  0.78 0.08 0  0.8100000000000001 0.08 0  0.84 0.08 0  0.87 0.08 0  0.9 0.08 0  0.93 0.08 0  0.96 0.08 0  0.99 0.08 0  1.02 0.08 0  1.05 0.08 0  1.08 0.08 0  1.11 0.08 0  1.14 0.08 0  1.17 0.08 0  1.2 0.08 0  1.23 0.08 0  1.26 0.08 0  1.29 0.08 0  1.32 0.08 0  1.35 0.08 0  1.38 0.08 0  1.41 0.08 0  1.44 0.08 0  1.47 0.08 0  1.5 0.08 0  0 0.1 0  0.03 0.1 0  0.06 0.1 0  0.09 0.1 0  0.12 0.1 0  0.15 0.1 0  0.18 0.1 0  0.21 0.1 0  0.24 0.1 0  0.27 0.1 0  0.3 0.1 0  0.33 0.1 0  0.36 0.1 0  0.39 0.1 0  0.42 0.1 0  0.45 0.1 0  0.48 0.1 0  0.51 0.1 0  0.54 0.1 0  0.57 0.1 0  0.6 0.1 0  0.63 0.1 0  0.66 0.1 0  0.6899999999999999 0.1 0  0.72 0.1 0  0.75 0.1 0  0.78 0.1 0  0.8100000000000001 0.1 0  0.84 0.1 0  0.87 0.1 0  0.9 0.1 0  0.93 0.1 0  0.96 0.1 0  0.99 0.1 0  1.02 0.1 0  1.05 0.1 0  1.08 0.1 0  1.11 0.1 0  1.14 0.1 0  1.17 0.1 0  1.2 0.1 0  1.23 0.1 0  1.26 0.1 0  1.29 0.1 0  1.32 0.1 0  1.35 0.1 0  1.38 0.1 0  1.41 0.1 0  1.44 0.1 0  1.47 0.1 0  1.5 0.1 0  0 0.12 0  0.03 0.12 0  0.06 0.12 0  0.09 0.12 0  0.12 0.12 0  0.15 0.12 0  0.18 0.12 0  0.21 0.12 0  0.24 0.12 0  0.27 0.12 0  0.3 0.12 0  0.33 0.12 0  0.36 0.12 0  0.39 0.12 0  0.42 0.12 0  0.45 0.12 0  0.48 0.12 0  0.51 0.12 0  0.54 0.12 0  0.57 0.12 0  0.6 0.12 0  0.63 0.12 0  0.66 0.12 0  0.6899999999999999 0.12 0  0.72 0.12 0  0.75 0.12 0  0.78 0.12 0  0.8100000000000001 0.12 0  0.84 0.12 0  0.87 0.12 0  0.9 0.12 0  0.93 0.12 0  0.96 0.12 0  0.99 0.12 0  1.02 0.12 0  1.05 0.12 0  1.08 0.12 0  1.11 0.12 0  1.14 0.12 0  1.17 0.12 0  1.2 0.12 0  1.23 0.12 0  1.26 0.12 0  1.29 0.12 0  1.32 0.12 0  1.35 0.12 0  1.38 0.12 0  1.41 0.12 0  1.44 0.12 0  1.47 0.12 0  1.5 0.12 0  0 0.14 0  0.03 0.14 0  0.06 0.14 0  0.09 0.14 0  0.12 0.14 0  0.15 0.14 0  0.18 0.14 0  0.21 0.14 0  0.24 0.14 0  0.27 0.14 0  0.3 0.14 0  0.33 0.14 0  0.36 0.14 0  0.39 0.14 0  0.42 0.14 0  0.45 0.14 0  0.48 0.14 0  0.51 0.14 0  0.54 0.14 0  0.57 0.14 0  0.6 0.14 0  0.63 0.14 0  0.66 0.14 0  0.6899999999999999 0.14 0  0.72 0.14 0  0.75 0.14 0  0.78 0.14 0  0.8100000000000001 0.14 0  0.84 0.14 0  0.87 0.14 0  0.9 0.14 0  0.93 0.14 0  0.96 0.14 0  0.99 0.14 0  1.02 0.14 0  1.05 0.14 0  1.08 0.14 0  1.11 0.14 0  1.14 0.14 0  1.17 0.14 0  1.2 0.14 0  1.23 0.14 0  1.26 0.14 0  1.29 0.14 0  1.32 0.14 0  1.35 0.14 0  1.38 0.14 0  1.41 0.14 0  1.44 0.14 0  1.47 0.14 0  1.5 0.14 0  0 0.16 0  0.03 0.16 0  0.06 0.16 0  0.09 0.16 0  0.12 0.16 0  0.15 0.16 0  0.18 0.16 0  0.21 0.16 0  0.24 0.16 0  0.27 0.16 0  0.3 0.16 0  0.33 0.16 0  0.36 0.16 0  0.39 0.16 0  0.42 0.16 0  0.45 0.16 0  0.48 0.16 0  0.51 0.16 0  0.54 0.16 0  0.57 0.16 0  0.6 0.16 0  0.63 0.16 0  0.66 0.16 0  0.6899999999999999 0.16 0  0.72 0.16 0  0.75 0.16 0  0.78 0.16 0  0.8100000000000001 0.16 0  0.84 0.16 0  0.87 0.16 0  0.9 0.16 0  0.93 0.16 0  0.96 0.16 0  0.99 0.16 0  1.02 0.16 0  1.05 0.16 0  1.08 0.16 0  1.11 0.16 0  1.14 0.16 0  1.17 0.16 0  1.2 0.16 0  1.23 0.16 0  1.26 0.16 0  1.29 0.16 0  1.32 0.16 0  1.35 0.16 0  1.38 0.16 0  1.41 0.16 0  1.44 0.16 0  1.47 0.16 0  1.5 0.16 0  0 0.18 0  0.03 0.18 0  0.06 0.18 0  0.09 0.18 0  0.12 0.18 0  0.15 0.18 0  0.18 0.18 0  0.21 0.18 0  0.24 0.18 0  0.27 0.18 0  0.3 0.18 0  0.33 0.18 0  0.36 0.18 0  0.39 0.18 0  0.42 0.18 0  0.45 0.18 0  0.48 0.18 0  0.51 0.18 0  0.54 0.18 0  0.57 0.18 0  0.6 0.18 0  0.63 0.18 0  0.66 0.18 0  0.6899999999999999 0.18 0  0.72 0.18 0  0.75 0.18 0  0.78 0.18 0  0.8100000000000001 0.18 0  0.84 0.18 0  0.87 0.18 0  0.9 0.18 0  0.93 0.18 0  0.96 0.18 0  0.99 0.18 0  1.02 0.18 0  1.05 0.18 0  1.08 0.18 0  1.11 0.18 0  1.14 0.18 0  1.17 0.18 0  1.2 0.18 0  1.23 0.18 0  1.26 0.18 0  1.29 0.18 0  1.32 0.18 0  1.35 0.18 0  1.38 0.18 0  1.41 0.18 0  1.44 0.18 0  1.47 0.18 0  1.5 0.18 0  0 0.2 0  0.03 0.2 0  0.06 0.2 0  0.09 0.2 0  0.12 0.2 0  0.15 0.2 0  0.18 0.2 0  0.21 0.2 0  0.24 0.2 0  0.27 0.2 0  0.3 0.2 0  0.33 0.2 0  0.36 0.2 0  0.39 0.2 0  0.42 0.2 0  0.45 0.2 0  0.48 0.2 0  0.51 0.2 0  0.54 0.2 0  0.57 0.2 0  0.6 0.2 0  0.63 0.2 0  0.66 0.2 0  0.6899999999999999 0.2 0  0.72 0.2 0  0.75 0.2 0  0.78 0.2 0  0.8100000000000001 0.2 0  0.84 0.2 0  0.87 0.2 0  0.9 0.2 0  0.93 0.2 0  0.96 0.2 0  0.99 0.2 0  1.02 0.2 0  1.05 0.2 0  1.08 0.2 0  1.11 0.2 0  1.14 0.2 0  1.17 0.2 0  1.2 0.2 0  1.23 0.2 0  1.26 0.2 0  1.29 0.2 0  1.32 0.2 0  1.35 0.2 0  1.38 0.2 0  1.41 0.2 0  1.44 0.2 0  1.47 0.2 0  1.5 0.2 0  0 0.22 0  0.03 0.22 0  0.06 0.22 0  0.09 0.22 0  0.12 0.22 0  0.15 0.22 0  0.18 0.22 0  0.21 0.22 0  0.24 0.22 0  0.27 0.22 0  0.3 0.22 0  0.33 0.22 0  0.36 0.22 0  0.39 0.22 0  0.42 0.22 0  0.45 0.22 0  0.48 0.22 0  0.51 0.22 0  0.54 0.22 0  0.57 0.22 0  0.6 0.22 0  0.63 0.22 0  0.66 0.22 0  0.6899999999999999 0.22 0  0.72 0.22 0  0.75 0.22 0  0.78 0.22 0  0.8100000000000001 0.22 0  0.84 0.22 0  0.87 0.22 0  0.9 0.22 0  0.93 0.22 0  0.96 0.22 0  0.99 0.22 0  1.02 0.22 0  1.05 0.22 0  1.08 0.22 0  1.11 0.22 0  1.14 0.22 0  1.17 0.22 0  1.2 0.22 0  1.23 0.22 0  1.26 0.22 0  1.29 0.22 0  1.32 0.22 0  1.35 0.22 0  1.38 0.22 0  1.41 0.22 0  1.44 0.22 0  1.47 0.22 0  1.5 0.22 0  0 0.24 0  0.03 0.24 0  0.06 0.24 0  0.09 0.24 0  0.12 0.24 0  0.15 0.24 0  0.18 0.24 0  0.21 0.24 0  0.24 0.24 0  0.27 0.24 0  0.3 0.24 0  0.33 0.24 0  0.36 0.24 0  0.39 0.24 0  0.42 0.24 0  0.45 0.24 0  0.48 0.24 0  0.51 0.24 0  0.54 0.24 0  0.57 0.24 0  0.6 0.24 0  0.63 0.24 0  0.66 0.24 0  0.6899999999999999 0.24 0  0.72 0.24 0  0.75 0.24 0  0.78 0.24 0  0.8100000000000001 0.24 0  0.84 0.24 0  0.87 0.24 0  0.9 0.24 0  0.93 0.24 0  0.96 0.24 0  0.99 0.24 0  1.02 0.24 0  1.05 0.24 0  1.08 0.24 0  1.11 0.24 0  1.14 0.24 0  1.17 0.24 0  1.2 0.24 0  1.23 0.24 0  1.26 0.24 0  1.29 0.24 0  1.32 0.24 0  1.35 0.24 0  1.38 0.24 0  1.41 0.24 0  1.44 0.24 0  1.47 0.24 0  1.5 0.24 0  0 0.26 0  0.03 0.26 0  0.06 0.26 0  0.09 0.26 0  0.12 0.26 0  0.15 0.26 0  0.18 0.26 0  0.21 0.26 0  0.24 0.26 0  0.27 0.26 0  0.3 0.26 0  0.33 0.26 0  0.36 0.26 0  0.39 0.26 0  0.42 0.26 0  0.45 0.26 0  0.48 0.26 0  0.51 0.26 0  0.54 0.26 0  0.57 0.26 0  0.6 0.26 0  0.63 0.26 0  0.66 0.26 0  0.6899999999999999 0.26 0  0.72 0.26 0  0.75 0.26 0  0.78 0.26 0  0.8100000000000001 0.26 0  0.84 0.26 0  0.87 0.26 0  0.9 0.26 0  0.93 0.26 0  0.96 0.26 0  0.99 0.26 0  1.02 0.26 0  1.05 0.26 0  1.08 0.26 0  1.11 0.26 0  1.14 0.26 0  1.17 0.26 0  1.2 0.26 0  1.23 0.26 0  1.26 0.26 0  1.29 0.26 0  1.32 0.26 0  1.35 0.26 0  1.38 0.26 0  1.41 0.26 0  1.44 0.26 0  1.47 0.26 0  1.5 0.26 0  0 0.28 0  0.03 0.28 0  0.06 0.28 0  0.09 0.28 0  0.12 0.28 0  0.15 0.28 0  0.18 0.28 0  0.21 0.28 0  0.24 0.28 0  0.27 0.28 0  0.3 0.28 0  0.33 0.28 0  0.36 0.28 0  0.39 0.28 0  0.42 0.28 0  0.45 0.28 0  0.48 0.28 0  0.51 0.28 0  0.54 0.28 0  0.57 0.28 0  0.6 0.28 0  0.63 0.28 0  0.66 0.28 0  0.6899999999999999 0.28 0  0.72 0.28 0  0.75 0.28 0  0.78 0.28 0  0.8100000000000001 0.28 0  0.84 0.28 0  0.87 0.28 0  0.9 0.28 0  0.93 0.28 0  0.96 0.28 0  0.99 0.28 0  1.02 0.28
[...]
<PointData  Scalars="sensitivity"> 
<DataArray  type="Float64"  Name="sensitivity"  format="ascii">-1.9489625916229984e-07  -4.8678416208006706e-06  -2.3813866654542402e-05  -6.3995896603194507e-05  -1.2336094340458108e-04  -1.9230934080565948e-04  -2.6136116335268592e-04  -3.2639561188018632e-04  -3.8737745830805530e-04  -4.4371534747550444e-04  -4.9145844303870691e-04  -5.2522472694810319e-04  -5.4288416050186038e-04  -5.4792801280755313e-04  -5.4714057146367369e-04  -5.4631616478328687e-04  -5.4786062830479388e-04  -5.5129776527437270e-04  -5.5518465688595168e-04  -5.5856295696944723e-04  -5.6121393004769410e-04  -5.6323148143315016e-04  -5.6468296135120204e-04  -5.6558752011609482e-04  -5.6600215595521534e-04  -5.6602122293704165e-04  -5.6569199040864128e-04  -5.6493606778904081e-04  -5.6352181414781079e-04  -5.6109899113921953e-04  -5.5737628973015669e-04  -5.5255014164871344e-04  -5.4781892099895087e-04  -5.4534303050913471e-04  -5.4693424099995958e-04  -5.5158709909804702e-04  -5.5358100186846994e-04  -5.4404186335595909e-04  -5.1681809561013358e-04  -4.7391072225763350e-04  -4.2393646731128610e-04  -3.7475837958775716e-04  -3.2790949128037926e-04  -2.7875536442335851e-04  -2.2118289488823833e-04  -1.5469223382728184e-04  -8.8771960391992462e-05  -3.7994417991072828e-05  -1.0232038283168207e-05  -9.0379493470412777e-07  -2.1815453989616170e-09  -2.8254259105775031e-06  -5.5585469603311245e-05  -2.5853932912641510e-04  -7.0447519578584173e-04  -1.3786140415122221e-03  -2.1624522595743299e-03  -2.9333246615840278e-03  -3.6383243352210225e-03  -4.2851260611144982e-03  -4.8840814504484409e-03  -5.4041774785219682e-03  -5.7843509167712368e-03  -5.9879230018878493e-03  -6.0418505535142393e-03  -6.0202120209066545e-03  -5.9944251059439934e-03  -5.9987554344967924e-03  -6.0309139829046142e-03  -6.0735727565746026e-03  -6.1134444959418206e-03  -6.1462810795203321e-03  -6.1723046612143402e-03  -6.1917801696113372e-03  -6.2044831972297917e-03  -6.2107844431761525e-03  -6.2117408038496564e-03  -6.2080632787147602e-03  -6.1991458754428368e-03  -6.1827894393308184e-03  -6.1555137926115992e-03  -6.1140379655711709e-03  -6.0594881763116684e-03  -6.0036068310878581e-03  -5.9705754321502102e-03  -5.9854685708793688e-03  -6.0473770696202814e-03  -6.1026662493040562e-03  -6.0519551530404886e-03  -5.8116130984831316e-03  -5.3864767242752824e-03  -4.8694228820257562e-03  -4.3593486478023143e-03  -3.8846602492224728e-03  -3.3928746054012254e-03  -2.7966405593598570e-03  -2.0587313091721829e-03  -1.2652709770902661e-03  -5.9850302077796226e-04  -1.9482257665419950e-04  -3.1816072860337509e-05  -6.1361548255299698e-07  -1.1023572981743321e-05  -1.6052530135774238e-04  -6.1986085841568756e-04  -1.5720720596431792e-03  -2.9572434501083924e-03  -4.4756633415656234e-03  -5.8548527321168583e-03  -7.0108411150613011e-03  -8.0086584943683970e-03  -8.9208584928139462e-03  -9.7210893400163662e-03  -1.0298756392903334e-02  -1.0573677419367543e-02  -1.0588200940725590e-02  -1.0482197769968610e-02  -1.0392500805625600e-02  -1.0381090316562404e-02  -1.0436238130745958e-02  -1.0517792975582212e-02  -1.0597033430535198e-02  -1.0665477672325330e-02  -1.0723219989913576e-02  -1.0769166177212635e-02  -1.0800909187071132e-02  -1.0817962903843804e-02  -1.0822143151906043e-02  -1.0815147738524128e-02  -1.0796382745855733e-02  -1.0762528178119270e-02  -1.0707980310242313e-02  -1.0626483616749189e-02  -1.0517901037709401e-02  -1.0401411351786998e-02  -1.0324052802558877e-02  -1.0344575738016493e-02  -1.0482525932024445e-02  -1.0655908792032938e-02  -1.0676011380424623e-02  -1.0361429581729554e-02  -9.7019474064289415e-03  -8.8801902140158012e-03  -8.1017694579222886e-03  -7.4248579207280970e-03  -6.7326852867204863e-03  -5.8118229660903973e-03  -4.5168124279200946e-03  -2.9559742569735333e-03  -1.5112449558753217e-03  -5.5872623147511127e-04  -1.2497495960323387e-04  -5.1939037023041014e-06  -2.5741275670529433e-05  -3.6198114127593327e-04  -1.2316956457969065e-03  -2.8054957875971050e-03  -4.8608754419470455e-03  -6.8923702887730481e-03  -8.5423893041589906e-03  -9.7609980362032573e-03  -1.0713921739475607e-02  -1.1566183561545689e-02  -1.2313568221310784e-02  -1.2804726863924174e-02  -1.2927068895750097e-02  -1.2750225852168241e-02  -1.2478354368434127e-02  -1.2293268739298074e-02  -1.2255999763383917e-02  -1.2322728798087563e-02  -1.2421416172634753e-02  -1.2511141749493422e-02  -1.2586829884713760e-02  -1.2653329838963801e-02  -1.2708972698071589e-02  -1.2748183927840629e-02  -1.2768861955431683e-02  -1.2773570170930955e-02  -1.2765573363513699e-02  -1.2745273292294114e-02  -1.2709459939203903e-02  -1.2651256269223790e-02  -1.2560041872062694e-02  -1.2428564948222708e-02  -1.2274112908951891e-02  -1.2160570787104932e-02  -1.2187398423048227e-02  -1.2418963317944783e-02  -1.2776256169204300e-02  -1.2996721206476339e-02  -1.2791082385486303e-02  -1.2120055826676471e-02  -1.1255606205630217e-02  -1.0502463783084027e-02  -9.9270064074548879e-03  -9.3522329578348117e-03  -8.4677536354318805e-03  -6.9928416065199841e-03  -4.9295136019892622e-03  -2.7379032750598641e-03  -1.1089610900741514e-03  -2.8511529539192659e-04  -1.5622141227019236e-05  -4.5018618099508501e-05  -7.5496906896934529e-04  -2.5414149155320227e-03  -5.1124695004327219e-03  -7.7162900067719812e-03  -9.9224521236241214e-03  -1.1677772966702520e-02  -1.2966808351383955e-02  -1.3873699248097823e-02  -1.4585042935144800e-02  -1.5133489960713590e-02  -1.5343715715722666e-02  -1.5095646038316642e-02  -1.4531193152080388e-02  -1.3957358850166810e-02  -1.3606757952282717e-02  -1.3516585390940644e-02  -1.3580090782589725e-02  -1.3673609432048260e-02  -1.3742945013603932e-02  -1.3795501258380031e-02  -1.3847387680871334e-02  -1.3896633472142695e-02  -1.3932166060222059e-02  -1.3948834973468958e-02  -1.3950153752234394e-02  -1.3942112968143180e-02  -1.3927532788197505e-02  -1.3904637091902474e-02  -1.3865919444942861e-02  -1.3794386761279729e-02  -1.3668473020955087e-02  -1.3493338336557486e-02  -1.3347382267595064e-02  -1.3389935640496510e-02  -1.3770446099640132e-02  -1.4445934234138515e-02  -1.5062574708180128e-02  -1.5152376962427506e-02  -1.4593291898730699e-02  -1.3762265871054998e-02  -1.3070755472277391e-02  -1.2570284833331618e-02  -1.2152705321388469e-02  -1.1588116296912308e-02  -1.0389833556383574e-02  -8.2174745849347419e-03  -5.2241934591918966e-03  -2.3127182393811218e-03  -5.7089912649862541e-04  -3.0001050392060373e-05  -7.7354580524027021e-05  -1.7672684145183233e-03  -6.1842889620962131e-03  -1.0860360201007148e-02  -1.3264336041057498e-02  -1.3812470029780902e-02  -1.3954257308746693e-02  -1.4742164647502944e-02  -1.6252999146101923e-02  -1.7752165779872400e-02  -1.8587527865138977e-02  -1.8526101307819908e-02  -1.7656071428916148e-02  -1.6405575267675828e-02  -1.5307372240724261e-02  -1.4668547673076232e-02  -1.4469185599571846e-02  -1.4495762694547167e-02  -1.4545770669117372e-02  -1.4550474425288793e-02  -1.4542152750942904e-02  -1.4555220515230984e-02  -1.4584701524546089e-02  -1.4608451636104485e-02  -1.4615225160607139e-02  -1.4609371039848660e-02  -1.4600972586525545e-02  -1.4597206977830396e-02  -1.4600026831117812e-02  -1.4603602220120747e-02  -1.4584716864845406e-02  -1.4501176320345303e-02  -1.4332509598686819e-02  -1.4163990759104012e-02  -1.4237789115939684e-02  -1.4849596260025013e-02  -1.6049768115379795e-02  -1.7364468825087454e-02  -1.7984236744524755e-02  -1.7503833063151494e-02  -1.6333427940833246e-02  -1.5143337399352433e-02  -1.4546122579287377e-02  -1.4859141211171446e-02  -1.5765083429363516e-02  -1.5990911316729080e-02  -1.4383890218735120e-02  -1.0499693341735380e-02  -5.3100180472467843e-03  -1.1909920840965801e-03  -4.6061867661169114e-05  -2.2991049399925272e-04  -4.9514779222046374e-03  -1.4334322627160409e-02  -2.2570900989317681e-02  -2.6286905637849575e-02  -2.5540499551677507e-02  -2.1638977649152392e-02  -1.7008781304855267e-02  -1.5909997469120075e-02  -1.8245541336735664e-02  -2.1253969626733486e-02  -2.2318103115605524e-02  -2.1113727426415044e-02  -1.8927886488578488e-02  -1.7008957038571769e-02  -1.5893476077246147e-02  -1.5482553121198598e-02  -1.5399231027060716e-02  -1.5330414803522752e-02  -1.5196827090870561e-02  -1.5072487026169286e-02  -1.5015529598281237e-02  -1.5010244637072821e-02  -1.5013653585605030e-02  -1.5003914406977435e-02  -1.4986270023521986e-02  -1.4976560529149471e-02  -1.4988663082258349e-02  -1.5031757297163911e-02  -1.5106310372665483e-02  -1.5186379926176640e-02  -1.5205252531607920e-02  -1.5099039233358435e-02  -1.4941745997103835e-02  -1.5080074549546950e-02  -1.6041561067111194e-02  -1.8053600363770832e-02  -2.0427707191160785e-02  -2.1562094603914016e-02  -2.0266259332335952e-02  -1.7636349894607353e-02  -1.5901695439359344e-02  -1.5861555514625494e-02  -1.8807636501894917e-02  -2.4416267929188044e-02  -2.8114198239859521e-02  -2.7545134776607149e-02  -2.1962605247437973e-02  -1.3899282785703147e-02  -3.7129908215140324e-03  -8.0629891718638955e-05  -1.0061638927728689e-03  -1.4742779338398470e-02  -2.5994147601578463e-02  -2.7667426040433599e-02  -2.9072571656629596e-02  -2.9595539388418919e-02  -2.9979126294420812e-02  -2.8014631748922960e-02  -2.2194963460603394e-02  -1.8636462274635304e-02  -2.0746363465956808e-02  -2.4095537891692970e-02  -2.4638138827662227e-02  -2.2336267612307267e-02  -1.9596075247836513e-02  -1.7846708077504322e-02  -1.7086914930129805e-02  -1.6758188269876791e-02  -1.6415651620596966e-02  -1.6000074797041040e-02  -1.5663399001878461e-02  -1.5485906204994711e-02  -1.5420810980567299e-02  -1.5388199050409666e-02  -1.5350242877778758e-02  -1.5314029056660570e-02  -1.5302970750614568e-02  -1.5339892433493398e-02  -1.5446290574421675e-02  -1.5637479661458904e-02  -1.5894541103272999e-02  -1.6127735939845168e-02  -1.6205524219267138e-02  -1.6149218737657636e-02  -1.6408299120708316e-02  -1.7830581155580217e-02  -2.0845014626810623e-02  -2.4165956071298549e-02  -2.4604172891016032e-02  -2.1047121651975937e-02  -1.7096418336537446e-02  -1.6515807623216174e-02  -2.1667980316063398e-02  -2.7418898106550193e-02  -2.9803707282749399e-02  -3.0668680068445135e-02  -3.0864915723283051e-02  -2.8517097842020365e-02  -2.3475171780348324e-02  -1.2461424759025647e-02  -2.7840594585706174e-04  -5.1509005697279019e-03  -2.8116103644106129e-02  -3.6371672527351698e-02  -3.5342670136868932e-02  -3.3319201510120335e-02  -3.1005459692650204e-02  -2.9281443118104628e-02  -2.9744261470711630e-02  -3.0087933376601712e-02  -2.7649225745044366e-02  -2.5159778493473426e-02  -2.3945945602989009e-02  -2.4386574656495300e-02  -2.4155911424270201e-02  -2.2551996175494249e-02  -2.0873681699250534e-02  -1.9900086391366711e-02  -1.9227850668543323e-02  -1.8389686716364179e-02  -1.7428074693396224e-02  -1.6694922979280914e-02  -1.6299389120762037e-02  -1.6121827546053062e-02  -1.6017014936652127e-02  -1.5925672753038505e-02  -1.5859906462629598e-02  -1.5851917088473055e-02  -1.5934034937741849e-02  -1.6146274144930459e-02  -1.6532495847598604e-02  -1.7099065183368962e-02  -1.7746430977616221e-02  -1.8245514533950374e-02  -1.8437583480873827e-02  -1.8713047966952823e-02  -2.0200003893726021e-02  -2.3534997156539138e-02  -2.6999200312385171e-02  -2.6424844845568198e-02  -2.0736851334810531e-02  -1.7399279987491648e-02  -2.2921138786020343e-02  -2.7647638840194402e-02  -2.8905386953991263e-02  -2.9785159904481377e-02  -3.2097670870907077e-02  -3.3997485096091254e-02  -3.4025649485347198e-02  -3.3105161206044308e-02  -2.9580247632893037e-02  -3.4356783754343743e-03  -1.8921290800792655e-02  -3.7760111272264543e-02  -4.1303032887369896e-02  -4.1995859824093540e-02  -4.0934700224979879e-02  -3.6788198460082383e-02  -3.2323706878478034e-02  -2.9514279926194268e-02  -2.9171016227039208e-02  -3.1166535855209440e-02  -3.3735620734784498e-02  -3.3483272932856446e-02  -2.5157990426947004e-02  -2.0336224937089951e-02  -2.0994648304820427e-02  -2.2725180790498657e-02  -2.3570759838535897e-02  -2.3214735623897847e-02  -2.1939972591828415e-02  -2.0169229019419310e-02  -1.8768305694665872e-02  -1.7986930713687118e-02  -1.7593600964479705e-02  -1.7339483837656686e-02  -1.7141175479580457e-02  -1.7024936315613044e-02  -1.7031754541582164e-02  -1.7199649363184046e-02  -1.7592926964150869e-02  -1.8299625661653305e-02  -1.9364243832414214e-02  -2.0673061688175405e-02  -2.1808838235954957e-02  -2.2006181352186953e-02  -2.0873962926002489e-02  -2.0557163948135539e-02  -2.3704084468073601e-02  -2.8459430712139890e-02  -2.9848584705948211e-02  -2.7804210455685516e-02  -2.6408635843468680e-02  -2.7379814638952241e-02  -2.8257316557057561e-02  -2.9655321949419697e-02  -3.2610867184192815e-02  -3.7046977449380965e-02  -4.0079258355934511e-02  -4.0342034456930437e-02  -3.9110163075727060e-02  -3.8648660586413523e-02  -1.5707316562294980e-02  -2.9714950559701983e-02  -5.2354299121331778e-02  -4.8561932577140123e-02  -4.3209382236994318e-02  -4.2424228167777356e-02  -4.1781322644984228e-02  -3.8000602019336145e-02  -3.3796995312557698e-02  -3.0818482226671048e-02  -3.0261912145033720e-02  -3.3103170298661680e-02  -3.8323652079274274e-02  -3.7263161638201994e-02  -2.1910150464436669e-02  -1.4013776569656956e-02  -1.6981583729374382e-02  -2.2338217791557202e-02  -2.5872763220430688e-02  -2.6011533770080041e-02  -2.4107823032000385e-02  -2.2163454672720521e-02  -2.0982868152998650e-02  -2.0320716490005910e-02  -1.9836202876581433e-02  -1.9455616552836501e-02  -1.9252518277465824e-02  -1.9276917205550761e-02  -1.9553712184673534e-02  -2.0159461867554091e-02  -2.1211329181238209e-02  -2.2717249047793736e-02  -2.4351305201706884e-02  -2.5081152070470149e-02  -2.2765051523896927e-02  -1.7728951720228040e-02  -1.5390918207487912e-02  -2.0386899301522453e-02  -3.2945300519498115e-02  -3.9806629038913917e-02  -3.5827968630543737e-02  -3.0924323403139407e-02  -2.8778342801887916e-02  -2.9718292723096937e-02  -3.2967493046908464e-02  -3.7245550590984902e-02  -4.0004491308012487e-02  -4.1921878320874628e-02  -4.4668607350179912e-02  -4.8373212681610767e-02  -5.2644179550062842e-02  -2.8598897113275391e-02  -3.7011690411909597e-02  -6.1685226169992925e-02  -5.4365763000397922e-02  -5.0810718350065461e-02  -4.3942965046997975e-02  -4.1348827445549165e-02  -4.0448386252442660e-02  -3.7796640745595952e-02  -3.4648896699868245e-02  -3.2636119569862142e-02  -3.2548377377572942e-02  -3.4925626214167178e-02  -3.8538137645944714e-02  -3.3342413465849534e-02  -1.6615629488049823e-02  -1.2052338117444087e-02  -1.5327723499682925e-02  -1.9636361473417369e-02  -2.2120191264373860e-02  -2.2643432483932534e-02  -2.2385106136721747e-02  -2.2233143196569060e-02  -2.2139333570214557e-02  -2.1827812798271739e-02  -2.1402752435738210e-02  -2.1113731899073639e-02  -2.1036369410357615e-02  -2.1114601335382715e-02  -2.1352700953488561e-02  -2.1845512435409754e-02  -2.2613472187823013e-02  -2.3349752279283875e-02  -2.2908089197757192e-02  -1.8902634353769605e-02  -1.1469078587169662e-02  -8.3611528998803631e-03  -2.2927997424251837e-02  -3.8335430454314243e-02  -3.9582495201594681e-02  -3.5335105314719201e-02  -3.1736590733930314e-02  -3.0802934743184674e-02  -3.2816745510803345e-02  -3.6285582245847943e-02  -3.8949755848017339e-02  -4.1294891430883926e-02  -4.5050176993945798e-02  -5.0440742075078517e-02  -5.3565609392244938e-02  -6.2656304791427170e-02  -3.6040206219547628e-02  -4.2249813224321239e-02  -7.0990001298498334e-02  -5.7617127447794646e-02  -5.2884028542632286e-02  -4.9805952079331806e-02  -4.3091772777498302e-02  -4.0194567413931515e-02  -3.9181850868629811e-02  -3.7133935989900772e-02  -3.4834381565798295e-02  -3.3798269741529656e-02  -3.4308134554671937e-02  -3.5135053033453024e-02  -3.5506420477204072e-02  -2.9637677408502025e-02  -2.1198327575894210e-02  -2.4050127993343676e-02  -2.2142851270347479e-02  -1.6644706827217234e-02  -1.4865247610119970e-02  -1.5898152429724942e-02  -1.7730765734805413e-02  -1.9176438175402086e-02  -1.9752164474415627e-02  -1.9744982580636335e-02  -1.9626665244371799e-02  -1.9485250733145134e-02  -1.9174062058643505e-02  -1.8722943102227187e-02  -1.8363546815816281e-02  -1.8260179854013441e-02  -1.8479843893739412e-02  -1.8913022236402548e-02  -1.8689700559827570e-02  -1.7809579890699818e-02  -2.0581917043078175e-02  -2.9170804278643526e-02  -3.5921983477623230e-02  -3.6121338936593320e-02  -3.4028589014894618e-02  -3.2587145228174630e-02  -3.3350191979879054e-02  -3.5543629773260733e-02  -3.7610713201186280e-02  -3.9762179946425523e-02  -4.3454925086773760e-02  -4.8971766739703632e-02  -5.1971919589823529e-02  -5.8246442751676175e-02  -7.1421040025331270e-02  -4.1320755877830948e-02  -4.1387647008799155e-02  -7.2092694488208736e-02  -5.8661766751458948e-02  -5.2034846526854923e-02  -5.0628163244849943e-02  -4.6773478088959250e-02  -4.1347850955362482e-02  -3.9102944333226093e-02  -3.8130100733858023e-02  -3.6390596354421774e-02  -3.4370061354242046e-02  -3.3456080327892386e-02  -3.3790936928048590e-02  -3.3637375930869462e-02  -3.2952033208683763e-02  -3.2408788162447286e-02  -3.4868542722220376e-02  -3.9631117742876601e-02  -3.6282923344486802e-02  -2.8239232967770492e-02  -2.4053155784530302e-02  -2.4111008698427000e-02  -2.4616038748059302e-02  -2.4129291694939294e-02  -2.3364315882341013e-02  -2.3086720641936360e-02  -2.3145401069580789e-02  -2.3085031053819757e-02  -2.3142756619947646e-02  -2.4317656630169767e-02  -2.7376842054977441e-02  -3.1771272603528800e-02  -3.5294632812568207e-02  -3.5383856436922830e-02  -3.2655227519318916e-02  -3.1482729575619990e-02  -3.2690206789446397e-02  -3.3251295311637806e-02  -3.2970757272712120e-02  -3.3092884579132245e-02  -3.4027670990109830e-02  -3.5373891564488322e-02  -3.6643745432691589e-02  -3.8195652558024214e-02  -4.1110134307859258e-02  -4.6022467411306514e-02  -4.9533175677502893e-02  -5.1852562992501558e-02  -5.8332846654621059e-02  -7.1601651575643077e-02  -4.2275256889514029e-02  -3.5567371840425237e-02  -6.3388172037006849e-02  -5.4596262147377263e-02  -5.0308896463658860e-02  -4.9117960133663888e-02  -4.7575853497912872e-02  -4.3245648214846985e-02  -3.9577179875795197e-02  -3.8050827000385777e-02  -3.7249316097268725e-02  -3.5723348724375888e-02  -3.3665960408649380e-02  -3.2259133126473126e-02  -3.1976265674436941e-02  -3.1929209756715447e-02  -3.1970341879892714e-02  -3.3279234646401375e-02  -3.5569479752643560e-02  -3.6879138344029339e-02  -3.5314288390315605e-02  -3.3170388898972288e-02  -3.3205666156107712e-02  -3.4353727043309946e-02  -3.4472557277677923e-02  -3.3672745013714915e-02  -3.3087068078666945e-02  -3.3026366263985106e-02  -3.3068732630598487e-02  -3.3099914305139845e-02  -3.3561060270198784e-02  -3.4675834461503796e-02  -3.5917006588053330e-02  -3.6391958022736599e-02  -3.5474696793772763e-02  -3.3480624061175468e-02  -3.1682362902315027e-02  -3.0815202146347271e-02  -3.0960076298364995e-02  -3.2039513786952523e-02  -3.3791695939782172e-02  -3.5256967437329333e-02  -3.6149137337062230e-02  -3.7064139844187216e-02  -3.8948237926981565e-02  -4.2493932518812998e-02  -4.6482668680309681e-02  -4.8693151188894584e-02  -5.0197270542554656e-02  -5.3942945485974399e-02  -6.2543133458713970e-02  -3.7078544457951883e-02  -2.8344296653426779e-02  -5.2400663613199859e-02  -4.9452934307227130e-02  -4.8528972055442890e-02  -4.7843048057099949e-02  -4.6505326681722879e-02  -4.3758070086649052e-02  -4.0434986334959101e-02  -3.8137648950939476e-02  -3.7146433469375469e-02  -3.6571192493396548e-02  -3.5300770037494184e-02  -3.3322761017703977e-02  -3.1774274727393019e-02  -3.1477176512540603e-02  -3.2027261087859617e-02  -3.2517889941711002e-02  -3.2752966864506884e-02  -3.2398481520016585e-02  -3.1168740991136177e-02  -2.9829696473202719e-02  -2.9339039320250084e-02  -2.9550848502297476e-02  -2.9635604235938810e-02  -2.9273228394026615e-02  -2.8886106309158496e-02  -2.8821608853718202e-02  -2.8997543447321195e-02  -2.9311420370745789e-02  -2.9910235001898447e-02  -3.0898083429496237e-02  -