<?xml version="1.0"?>
<VTKFile type="UnstructuredGrid"  version="0.1"  >
<UnstructuredGrid>
<Piece  NumberOfPoints="2601" NumberOfCells="5000">
<Points>
<DataArray  type="Float64"  NumberOfComponents="3"  format="ascii">0 0 0  0.03 0 0  0.06 0 0  0.09 0 0  0.12 0 0  0.15 0 0  0.18 0 0  0.21 0 0  0.24 0 0  0.27 0 0  0.3 0 0  0.33 0 0  0.36 0 0  0.39 0 0  0.42 0 0  0.45 0 0  0.48 0 0  0.51 0 0  0.54 0 0  0.57 0 0  0.6 0 0  0.63 0 0  0.66 0 0  0.6899999999999999 0 0  0.72 0 0  0.75 0 0  0.78 0 0  0.8100000000000001 0 0  0.84 0 0  0.87 0 0  0.9 0 0  0.93 0 0  0.96 0 0  0.99 0 0  1.02 0 0  1.05 0 0  1.08 0 0  1.11 0 0  1.14 0 0  1.17 0 0  1.2 0 0  1.23 0 0  1.26 0 0  1.29 0 0  1.32 0 0  1.35 0 0  1.38 0 0  1.41 0 0  1.44 0 0  1.47 0 0  1.5 0 0  0 0.02 0  0.03 0.02 0  0.06 0.02 0  0.09 0.02 0  0.12 0.02 0  0.15 0.02 0  0.18 0.02 0  0.21 0.02 0  0.24 0.02 0  0.27 0.02 0  0.3 0.02 0  0.33 0.02 0  0.36 0.02 0  0.39 0.02 0  0.42 0.02 0  0.45 0.02 0  0.48 0.02 0  0.51 0.02 0  0.54 0.02 0  0.57 0.02 0  0.6 0.02 0  0.63 0.02 0  0.66 0.02 0  0.6899999999999999 0.02 0  0.72 0.02 0  0.75 0.02 0  0.78 0.02 0  0.8100000000000001 0.02 0  0.84 0.02 0  0.87 0.02 0  0.9 0.02 0  0.93 0.02 0  0.96 0.02 0  0.99 0.02 0  1.02 0.02 0  1.05 0.02 0  1.08 0.02 0  1.11 0.02 0  1.14 0.02 0  1.17 0.02 0  1.2 0.02 0  1.23 0.02 0  1.26 0.02 0  1.29 0.02 0  1.32 0.02 0  1.35 0.02 0  1.38 0.02 0  1.41 0.02 0  1.44 0.02 0  1.47 0.02 0  1.5 0.02 0  0 0.04 0  0.03 0.04 0  0.06 0.04 0  0.09 0.04 0  0.12 0.04 0  0.15 0.04 0  0.18 0.04 0  0.21 0.04 0  0.24 0.04 0  0.27 0.04 0  0.3 0.04 0  0.33 0.04 0  0.36 0.04 0  0.39 0.04 0  0.42 0.04 0  0.45 0.04 0  0.48 0.04 0  0.51 0.04 0  0.54 0.04 0  0.57 0.04 0  0.6 0.04 0  0.63 0.04 0  0.66 0.04 0  0.6899999999999999 0.04 0  0.72 0.04 0  0.75 0.04 0  0.78 0.04 0  0.8100000000000001 0.04 0  0.84 0.04 0  0.87 0.04 0  0.9 0.04 0  0.93 0.04 0  0.96 0.04 0  0.99 0.04 0  1.02 0.04 0  1.05 0.04 0  1.08 0.04 0  1.11 0.04 0  1.14 0.04 0  1.17 0.04 0  1.2 0.04 0  1.23 0.04 0  1.26 0.04 0  1.29 0.04 0  1.32 0.04 0  1.35 0.04 0  1.38 0.04 0  1.41 0.04 0  1.44 0.04 0  1.47 0.04 0  1.5 0.04 0  0 0.06 0  0.03 0.06 0  0.06 0.06 0  0.09 0.06 0  0.12 0.06 0  0.15 0.06 0  0.18 0.06 0  0.21 0.06 0  0.24 0.06 0  0.27 0.06 0  0.3 0.06 0  0.33 0.06 0  0.36 0.06 0  0.39 0.06 0  0.42 0.06 0  0.45 0.06 0  0.48 0.06 0  0.51 0.06 0  0.54 0.06 0  0.57 0.06 0  0.6 0.06 0  0.63 0.06 0  0.66 0.06 0  0.6899999999999999 0.06 0  0.72 0.06 0  0.75 0.06 0  0.78 0.06 0  0.8100000000000001 0.06 0  0.84 0.06 0  0.87 0.06 0  0.9 0.06 0  0.93 0.06 0  0.96 0.06 0  0.99 0.06 0  1.02 0.06 0  1.05 0.06 0  1.08 0.06 0  1.11 0.06 0  1.14 0.06 0  1.17 0.06 0  1.2 0.06 0  1.23 0.06 0  1.26 0.06 0  1.29 0.06 0  1.32 0.06 0  1.35 0.06 0  1.38 0.06 0  1.41 0.06 0  1.44 0.06 0  1.47 0.06 0  1.5 0.06 0  0 0.08 0  0.03 0.08 0  0.06 0.08 0  0.09 0.08 0  0.12 0.08 0  0.15 0.08 0  0.18 0.08 0  0.21 0.08 0  0.24 0.08 0  0.27 0.08 0  0.3 0.08 0  0.33 0.08 0  0.36 0.08 0  0.39 0.08 0  0.42 0.08 0  0.45 0.08 0  0.48 0.08 0  0.51 0.08 0  0.54 0.08 0  0.57 0.08 0  0.6 0.08 0  0.63 0.08 0  0.66 0.08 0  0.6899999999999999 0.08 0  0.72 0.08 0  0.75 0.08 0  0.78 0.08 0  0.8100000000000001 0.08 0  0.84 0.08 0  0.87 0.08 0  0.9 0.08 0  0.93 0.08 0  0.96 0.08 0  0.99 0.08 0  1.02 0.08 0  1.05 0.08 0  1.08 0.08 0  1.11 0.08 0  1.14 0.08 0  1.17 0.08 0  1.2 0.08 0  1.23 0.08 0  1.26 0.08 0  1.29 0.08 0  1.32 0.08 0  1.35 0.08 0  1.38 0.08 0  1.41 0.08 0  1.44 0.08 0  1.47 0.08 0  1.5 0.08 0  0 0.1 0  0.03 0.1 0  0.06 0.1 0  0.09 0.1 0  0.12 0.1 0  0.15 0.1 0  0.18 0.1 0  0.21 0.1 0  0.24 0.1 0  0.27 0.1 0  0.3 0.1 0  0.33 0.1 0  0.36 0.1 0  0.39 0.1 0  0.42 0.1 0  0.45 0.1 0  0.48 0.1 0  0.51 0.1 0  0.54 0.1 0  0.57 0.1 0  0.6 0.1 0  0.63 0.1 0  0.66 0.1 0  0.6899999999999999 0.1 0  0.72 0.1 0  0.75 0.1 0  0.78 0.1 0  0.8100000000000001 0.1 0  0.84 0.1 0  0.87 0.1 0  0.9 0.1 0  0.93 0.1 0  0.96 0.1 0  0.99 0.1 0  1.02 0.1 0  1.05 0.1 0  1.08 0.1 0  1.11 0.1 0  1.14 0.1 0  1.17 0.1 0  1.2 0.1 0  1.23 0.1 0  1.26 0.1 0  1.29 0.1 0  1.32 0.1 0  1.35 0.1 0  1.38 0.1 0  1.41 0.1 0  1.44 0.1 0  1.47 0.1 0  1.5 0.1 0  0 0.12 0  0.03 0.12 0  0.06 0.12 0  0.09 0.12 0  0.12 0.12 0  0.15 0.12 0  0.18 0.12 0  0.21 0.12 0  0.24 0.12 0  0.27 0.12 0  0.3 0.12 0  0.33 0.12 0  0.36 0.12 0  0.39 0.12 0  0.42 0.12 0  0.45 0.12 0  0.48 0.12 0  0.51 0.12 0  0.54 0.12 0  0.57 0.12 0  0.6 0.12 0  0.63 0.12 0  0.66 0.12 0  0.6899999999999999 0.12 0  0.72 0.12 0  0.75 0.12 0  0.78 0.12 0  0.8100000000000001 0.12 0  0.84 0.12 0  0.87 0.12 0  0.9 0.12 0  0.93 0.12 0  0.96 0.12 0  0.99 0.12 0  1.02 0.12 0  1.05 0.12 0  1.08 0.12 0  1.11 0.12 0  1.14 0.12 0  1.17 0.12 0  1.2 0.12 0  1.23 0.12 0  1.26 0.12 0  1.29 0.12 0  1.32 0.12 0  1.35 0.12 0  1.38 0.12 0  1.41 0.12 0  1.44 0.12 0  1.47 0.12 0  1.5 0.12 0  0 0.14 0  0.03 0.14 0  0.06 0.14 0  0.09 0.14 0  0.12 0.14 0  0.15 0.14 0  0.18 0.14 0  0.21 0.14 0  0.24 0.14 0  0.27 0.14 0  0.3 0.14 0  0.33 0.14 0  0.36 0.14 0  0.39 0.14 0  0.42 0.14 0  0.45 0.14 0  0.48 0.14 0  0.51 0.14 0  0.54 0.14 0  0.57 0.14 0  0.6 0.14 0  0.63 0.14 0  0.66 0.14 0  0.6899999999999999 0.14 0  0.72 0.14 0  0.75 0.14 0  0.78 0.14 0  0.8100000000000001 0.14 0  0.84 0.14 0  0.87 0.14 0  0.9 0.14 0  0.93 0.14 0  0.96 0.14 0  0.99 0.14 0  1.02 0.14 0  1.05 0.14 0  1.08 0.14 0  1.11 0.14 0  1.14 0.14 0  1.17 0.14 0  1.2 0.14 0  1.23 0.14 0  1.26 0.14 0  1.29 0.14 0  1.32 0.14 0  1.35 0.14 0  1.38 0.14 0  1.41 0.14 0  1.44 0.14 0  1.47 0.14 0  1.5 0.14 0  0 0.16 0  0.03 0.16 0  0.06 0.16 0  0.09 0.16 0  0.12 0.16 0  0.15 0.16 0  0.18 0.16 0  0.21 0.16 0  0.24 0.16 0  0.27 0.16 0  0.3 0.16 0  0.33 0.16 0  0.36 0.16 0  0.39 0.16 0  0.42 0.16 0  0.45 0.16 0  0.48 0.16 0  0.51 0.16 0  0.54 0.16 0  0.57 0.16 0  0.6 0.16 0  0.63 0.16 0  0.66 0.16 0  0.6899999999999999 0.16 0  0.72 0.16 0  0.75 0.16 0  0.78 0.16 0  0.8100000000000001 0.16 0  0.84 0.16 0  0.87 0.16 0  0.9 0.16 0  0.93 0.16 0  0.96 0.16 0  0.99 0.16 0  1.02 0.16 0  1.05 0.16 0  1.08 0.16 0  1.11 0.16 0  1.14 0.16 0  1.17 0.16 0  1.2 0.16 0  1.23 0.16 0  1.26 0.16 0  1.29 0.16 0  1.32 0.16 0  1.35 0.16 0  1.38 0.16 0  1.41 0.16 0  1.44 0.16 0  1.47 0.16 0  1.5 0.16 0  0 0.18 0  0.03 0.18 0  0.06 0.18 0  0.09 0.18 0  0.12 0.18 0  0.15 0.18 0  0.18 0.18 0  0.21 0.18 0  0.24 0.18 0  0.27 0.18 0  0.3 0.18 0  0.33 0.18 0  0.36 0.18 0  0.39 0.18 0  0.42 0.18 0  0.45 0.18 0  0.48 0.18 0  0.51 0.18 0  0.54 0.18 0  0.57 0.18 0  0.6 0.18 0  0.63 0.18 0  0.66 0.18 0  0.6899999999999999 0.18 0  0.72 0.18 0  0.75 0.18 0  0.78 0.18 0  0.8100000000000001 0.18 0  0.84 0.18 0  0.87 0.18 0  0.9 0.18 0  0.93 0.18 0  0.96 0.18 0  0.99 0.18 0  1.02 0.18 0  1.05 0.18 0  1.08 0.18 0  1.11 0.18 0  1.14 0.18 0  1.17 0.18 0  1.2 0.18 0  1.23 0.18 0  1.26 0.18 0  1.29 0.18 0  1.32 0.18 0  1.35 0.18 0  1.38 0.18 0  1.41 0.18 0  1.44 0.18 0  1.47 0.18 0  1.5 0.18 0  0 0.2 0  0.03 0.2 0  0.06 0.2 0  0.09 0.2 0  0.12 0.2 0  0.15 0.2 0  0.18 0.2 0  0.21 0.2 0  0.24 0.2 0  0.27 0.2 0  0.3 0.2 0  0.33 0.2 0  0.36 0.2 0  0.39 0.2 0  0.42 0.2 0  0.45 0.2 0  0.48 0.2 0  0.51 0.2 0  0.54 0.2 0  0.57 0.2 0  0.6 0.2 0  0.63 0.2 0  0.66 0.2 0  0.6899999999999999 0.2 0  0.72 0.2 0  0.75 0.2 0  0.78 0.2 0  0.8100000000000001 0.2 0  0.84 0.2 0  0.87 0.2 0  0.9 0.2 0  0.93 0.2 0  0.96 0.2 0  0.99 0.2 0  1.02 0.2 0  1.05 0.2 0  1.08 0.2 0  1.11 0.2 0  1.14 0.2 0  1.17 0.2 0  1.2 0.2 0  1.23 0.2 0  1.26 0.2 0  1.29 0.2 0  1.32 0.2 0  1.35 0.2 0  1.38 0.2 0  1.41 0.2 0  1.44 0.2 0  1.47 0.2 0  1.5 0.2 0  0 0.22 0  0.03 0.22 0  0.06 0.22 0  0.09 0.22 0  0.12 0.22 0  0.15 0.22 0  0.18 0.22 0  0.21 0.22 0  0.24 0.22 0  0.27 0.22 0  0.3 0.22 0  0.33 0.22 0  0.36 0.22 0  0.39 0.22 0  0.42 0.22 0  0.45 0.22 0  0.48 0.22 0  0.51 0.22 0  0.54 0.22 0  0.57 0.22 0  0.6 0.22 0  0.63 0.22 0  0.66 0.22 0  0.6899999999999999 0.22 0  0.72 0.22 0  0.75 0.22 0  0.78 0.22 0  0.8100000000000001 0.22 0  0.84 0.22 0  0.87 0.22 0  0.9 0.22 0  0.93 0.22 0  0.96 0.22 0  0.99 0.22 0  1.02 0.22 0  1.05 0.22 0  1.08 0.22 0  1.11 0.22 0  1.14 0.22 0  1.17 0.22 0  1.2 0.22 0  1.23 0.22 0  1.26 0.22 0  1.29 0.22 0  1.32 0.22 0  1.35 0.22 0  1.38 0.22 0  1.41 0.22 0  1.44 0.22 0  1.47 0.22 0  1.5 0.22 0  0 0.24 0  0.03 0.24 0  0.06 0.24 0  0.09 0.24 0  0.12 0.24 0  0.15 0.24 0  0.18 0.24 0  0.21 0.24 0  0.24 0.24 0  0.27 0.24 0  0.3 0.24 0  0.33 0.24 0  0.36 0.24 0  0.39 0.24 0  0.42 0.24 0  0.45 0.24 0  0.48 0.24 0  0.51 0.24 0  0.54 0.24 0  0.57 0.24 0  0.6 0.24 0  0.63 0.24 0  0.66 0.24 0  0.6899999999999999 0.24 0  0.72 0.24 0  0.75 0.24 0  0.78 0.24 0  0.8100000000000001 0.24 0  0.84 0.24 0  0.87 0.24 0  0.9 0.24 0  0.93 0.24 0  0.96 0.24 0  0.99 0.24 0  1.02 0.24 0  1.05 0.24 0  1.08 0.24 0  1.11 0.24 0  1.14 0.24 0  1.17 0.24 0  1.2 0.24 0  1.23 0.24 0  1.26 0.24 0  1.29 0.24 0  1.32 0.24 0  1.35 0.24 0  1.38 0.24 0  1.41 0.24 0  1.44 0.24 0  1.47 0.24 0  1.5 0.24 0  0 0.26 0  0.03 0.26 0  0.06 0.26 0  0.09 0.26 0  0.12 0.26 0  0.15 0.26 0  0.18 0.26 0  0.21 0.26 0  0.24 0.26 0  0.27 0.26 0  0.3 0.26 0  0.33 0.26 0  0.36 0.26 0  0.39 0.26 0  0.42 0.26 0  0.45 0.26 0  0.48 0.26 0  0.51 0.26 0  0.54 0.26 0  0.57 0.26 0  0.6 0.26 0  0.63 0.26 0  0.66 0.26 0  0.6899999999999999 0.26 0  0.72 0.26 0  0.75 0.26 0  0.78 0.26 0  0.8100000000000001 0.26 0  0.84 0.26 0  0.87 0.26 0  0.9 0.26 0  0.93 0.26 0  0.96 0.26 0  0.99 0.26 0  1.02 0.26 0  1.05 0.26 0  1.08 0.26 0  1.11 0.26 0  1.14 0.26 0  1.17 0.26 0  1.2 0.26 0  1.23 0.26 0  1.26 0.26 0  1.29 0.26 0  1.32 0.26 0  1.35 0.26 0  1.38 0.26 0  1.41 0.26 0  1.44 0.26 0  1.47 0.26 0  1.5 0.26 0  0 0.28 0  0.03 0.28 0  0.06 0.28 0  0.09 0.28 0  0.12 0.28 0  0.15 0.28 0  0.18 0.28 0  0.21 0.28 0  0.24 0.28 0  0.27 0.28 0  0.3 0.28 0  0.33 0.28 0  0.36 0.28 0  0.39 0.28 0  0.42 0.28 0  0.45 0.28 0  0.48 0.28 0  0.51 0.28 0  0.54 0.28 0  0.57 0.28 0  0.6 0.28 0  0.63 0.28 0  0.66 0.28 0  0.6899999999999999 0.28 0  0.72 0.28 0  0.75 0.28 0  0.78 0.28 0  0.8100000000000001 0.28 0  0.84 0.28 0  0.87 0.28 0  0.9 0.28 0  0.93 0.28 0  0.96 0.28 0  0.99 0.28 0  1.02 0.28
[...]
<PointData  Scalars="sensitivity"> 
<DataArray  type="Float64"  Name="sensitivity"  format="ascii">-1.3042870108996797e-06  -1.8495577027049187e-05  -7.7029394116010779e-05  -1.9597570152060211e-04  -3.7568522617378522e-04  -5.9355084592622152e-04  -8.1743182105720375e-04  -1.0199753165773028e-03  -1.1850658417941178e-03  -1.3073254153784109e-03  -1.3883232481550858e-03  -1.4330859576690684e-03  -1.4481056191595195e-03  -1.4402787888488828e-03  -1.4162010109405293e-03  -1.3817026699799514e-03  -1.3416359599617742e-03  -1.2998489795540697e-03  -1.2592557852382353e-03  -1.2219496060844222e-03  -1.1893430659284459e-03  -1.1623259259658460e-03  -1.1414217169866065e-03  -1.1269206900400290e-03  -1.1189747273272284e-03  -1.1176535159412050e-03  -1.1229705408691798e-03  -1.1348875743904853e-03  -1.1532991845329781e-03  -1.1779902608029177e-03  -1.2085564171901615e-03  -1.2442833865053498e-03  -1.2839947861711350e-03  -1.3258882093314214e-03  -1.3673807331183838e-03  -1.4049801884071359e-03  -1.4342058637413888e-03  -1.4496019205167798e-03  -1.4448999361399311e-03  -1.4133673499804498e-03  -1.3482848091857370e-03  -1.2437530447116567e-03  -1.0964017450994100e-03  -9.0838978037599322e-04  -6.9127057373351872e-04  -4.6753214145535144e-04  -2.6766260220526900e-04  -1.2082031740226217e-04  -3.8177927878298722e-05  -5.4769917650581309e-06  -5.2728349819036519e-08  -9.3787399326593424e-06  -7.5542960697003601e-05  -3.0080879337962866e-04  -7.9027815568473686e-04  -1.5632317632989781e-03  -2.5326245587165733e-03  -3.5563582554026742e-03  -4.5034671245456131e-03  -5.2905139789610998e-03  -5.8849018237077545e-03  -6.2889070857136452e-03  -6.5228027368941415e-03  -6.6149178008307616e-03  -6.5964357664072297e-03  -6.4978874279351933e-03  -6.3467034552847643e-03  -6.1659842519230764e-03  -5.9742408779142843e-03  -5.7856446803214237e-03  -5.6104962358479397e-03  -5.4558300437684438e-03  -5.3261238337712581e-03  -5.2240336503250138e-03  -5.1510416177158814e-03  -5.1079328788589248e-03  -5.0950857402815419e-03  -5.1126127327562774e-03  -5.1604000084581308e-03  -5.2380620625210872e-03  -5.3447844333472938e-03  -5.4790026142631457e-03  -5.6378861620730693e-03  -5.8166584024091778e-03  -6.0078448276041883e-03  -6.2005559342338101e-03  -6.3798718316436399e-03  -6.5264166211910996e-03  -6.6162916732132480e-03  -6.6217252341169604e-03  -6.5125010384571545e-03  -6.2579659767924402e-03  -5.8299453280460612e-03  -5.2093679953603943e-03  -4.3977257620269137e-03  -3.4351646208975531e-03  -2.4119131610692924e-03  -1.4583836905317300e-03  -7.1421193083689256e-04  -2.6092265744332186e-04  -6.2310447098663517e-05  -3.6030568041195844e-06  -2.7051694465799512e-05  -1.4691396179688810e-04  -4.3706285330716234e-04  -1.0521641396097170e-03  -1.9940749421636550e-03  -3.1431724290541412e-03  -4.3343363229344971e-03  -5.4206113339465463e-03  -6.3121978042356809e-03  -6.9789322071879337e-03  -7.4273580585139092e-03  -7.6810155510809320e-03  -7.7718368230893179e-03  -7.7356755064149343e-03  -7.6080523509536877e-03  -7.4208641724740872e-03  -7.2008816483995330e-03  -6.9695474708136099e-03  -6.7432927441349860e-03  -6.5340225099216036e-03  -6.3497653177115986e-03  -6.1955082261101694e-03  -6.0741111713709019e-03  -5.9871190376639969e-03  -5.9353391624892161e-03  -5.9191667321241859e-03  -5.9387268939837352e-03  -5.9939144706292911e-03  -6.0843609417904039e-03  -6.2092846910641311e-03  -6.3671358440600531e-03  -6.5549752812982167e-03  -6.7676272676650655e-03  -6.9967617931619231e-03  -7.2300558744635424e-03  -7.4504925723468040e-03  -7.6358636212432076e-03  -7.7586251153350296e-03  -7.7867463795158976e-03  -7.6853346996393068e-03  -7.4197967286826465e-03  -6.9575175669438979e-03  -6.2742444980778888e-03  -5.3638975209917691e-03  -4.2631566259554114e-03  -3.0713251294453262e-03  -1.9279783204323175e-03  -9.9366104500556661e-04  -3.9787593564118644e-04  -1.3069411742898672e-04  -1.6368192581671425e-05  -4.4257528646630987e-05  -2.4908275783332021e-04  -6.5052703123098397e-04  -1.4068122242205856e-03  -2.4511124797876888e-03  -3.6404530451416067e-03  -4.8271168279555793e-03  -5.8732941165403020e-03  -6.7051802013861255e-03  -7.3124986144828411e-03  -7.7098561924065544e-03  -7.9194724060406597e-03  -7.9710199311251815e-03  -7.8999615901568926e-03  -7.7421125949751887e-03  -7.5292737212451161e-03  -7.2878071186167417e-03  -7.0387951767808795e-03  -6.7984265679016786e-03  -6.5783283229033686e-03  -6.3860906575713364e-03  -6.2261348773752848e-03  -6.1007701689953023e-03  -6.0111335578421181e-03  -5.9578033895803569e-03  -5.9410802248559217e-03  -5.9610663611930452e-03  -6.0176827393810172e-03  -6.1106732332956142e-03  -6.2395240114188543e-03  -6.4031432787988174e-03  -6.5991826227885693e-03  -6.8230487094020813e-03  -7.0668701290289623e-03  -7.3186466560855650e-03  -7.5616685950604416e-03  -7.7740038875603445e-03  -7.9281310398797416e-03  -7.9917316131977601e-03  -7.9301321239071982e-03  -7.7124278421138231e-03  -7.3063124874805426e-03  -6.6845708950569408e-03  -5.8318149277120689e-03  -4.7633032979779505e-03  -3.5751531322184616e-03  -2.3873022313770551e-03  -1.3314160475660366e-03  -5.7897810185587460e-04  -2.1207558819425417e-04  -3.4308384532979918e-05  -4.1155859572188481e-05  -3.7468532525964960e-04  -1.0711979294156721e-03  -2.1174486772449668e-03  -3.2653643655711595e-03  -4.4343677509294443e-03  -5.5630044183935697e-03  -6.5017517415471033e-03  -7.2097292838654466e-03  -7.7120605047632414e-03  -8.0271463405929971e-03  -8.1682239834928016e-03  -8.1595519130275313e-03  -8.0364446292484955e-03  -7.8352529198780461e-03  -7.5870283562218628e-03  -7.3168753667721687e-03  -7.0449725443421270e-03  -6.7869929189980716e-03  -6.5540487553880080e-03  -6.3529428431855044e-03  -6.1870984458614322e-03  -6.0578875545902492e-03  -5.9657959041921034e-03  -5.9110750836413482e-03  -5.8939152534607971e-03  -5.9143949830467836e-03  -5.9724506666356805e-03  -6.0679520605004707e-03  -6.2007647823657279e-03  -6.3705212905629076e-03  -6.5758598458790438e-03  -6.8131780249279699e-03  -7.0753558062306822e-03  -7.3509929373020665e-03  -7.6241137199415943e-03  -7.8733788157774442e-03  -8.0717753263945275e-03  -8.1867648670495511e-03  -8.1854747916856822e-03  -8.0397402784523845e-03  -7.7214234369806321e-03  -7.2066062235506597e-03  -6.4886295189335247e-03  -5.5106066642875932e-03  -4.3838702866106725e-03  -3.2389222458400970e-03  -2.0509027793334409e-03  -9.5986967725066995e-04  -2.8052292640512292e-04  -4.1014262462965916e-05  -4.5296336129938724e-05  -7.0923185342604918e-04  -2.6711677489200418e-03  -5.0134341567242635e-03  -5.9994335437182833e-03  -6.4005353336193645e-03  -6.9070788313678267e-03  -7.4351363608441742e-03  -7.8866270441530929e-03  -8.2305015769025582e-03  -8.4389608674183061e-03  -8.4908339377263390e-03  -8.4010670702934880e-03  -8.2078211484164013e-03  -7.9493321886830760e-03  -7.6549198371595722e-03  -7.3473410291636275e-03  -7.0455046958588854e-03  -6.7646271029451364e-03  -6.5153086498419225e-03  -6.3032570401154921e-03  -6.1303748526064265e-03  -5.9966235429330791e-03  -5.9015877243603597e-03  -5.8451534980803882e-03  -5.8274505054311723e-03  -5.8485572286410062e-03  -5.9083815021533856e-03  -6.0068632807413168e-03  -6.1443118040161709e-03  -6.3213819994932217e-03  -6.5382028921010379e-03  -6.7926618467562573e-03  -7.0785946534353879e-03  -7.3853590784755292e-03  -7.6976579887734998e-03  -7.9953032174171594e-03  -8.2536873203048998e-03  -8.4376836776947715e-03  -8.5141657956307286e-03  -8.4495889573395957e-03  -8.2876110185422566e-03  -7.9754614325286601e-03  -7.6415807836201664e-03  -7.2011055570315946e-03  -6.8514239395206719e-03  -6.3429599519170777e-03  -4.3710327993646660e-03  -1.8917959470240052e-03  -3.8686564429706223e-04  -2.7543305368396680e-05  -5.9587173394487329e-04  -3.0357248674747037e-03  -1.0716819729233381e-02  -1.9685663444251707e-02  -2.2410253006512271e-02  -1.8563594317227330e-02  -1.3461779783733840e-02  -1.0052655819178666e-02  -8.9554325764648404e-03  -8.9003972994184943e-03  -8.9551441217715650e-03  -8.8944864864244945e-03  -8.6985314775929867e-03  -8.4148319095899982e-03  -8.0853135641337694e-03  -7.7344561331311821e-03  -7.3807955584267292e-03  -7.0417562501480149e-03  -6.7325658638361045e-03  -6.4635746106772975e-03  -6.2390066749068197e-03  -6.0584480630956348e-03  -5.9197712970496252e-03  -5.8213911546326899e-03  -5.7628971307556393e-03  -5.7445221291705451e-03  -5.7664096989042844e-03  -5.8283381302169932e-03  -5.9301342424576339e-03  -6.0725167769171660e-03  -6.2575247257975692e-03  -6.4875201228464918e-03  -6.7626641246512553e-03  -7.0778396651631388e-03  -7.4229249074162637e-03  -7.7830820604551289e-03  -8.1424534776746941e-03  -8.4773472755085115e-03  -8.7453092134727167e-03  -8.9240312982784044e-03  -8.9850650469968443e-03  -9.1686817056318599e-03  -9.5091500405449034e-03  -1.1076928815719003e-02  -1.3787692080731393e-02  -1.7914345307961620e-02  -2.2277284631071648e-02  -2.0283164829318679e-02  -1.1916857888182173e-02  -2.5287951999058431e-03  -9.3192767281478558e-05  -1.8119494229082570e-03  -1.8752569097882855e-02  -3.1492778290767097e-02  -3.1527391676877542e-02  -3.1536477337592357e-02  -3.1522684607996843e-02  -3.1557837916371657e-02  -2.5025677463523733e-02  -1.4395192047640613e-02  -1.0391875167058907e-02  -9.6643537628719068e-03  -9.3984935275970329e-03  -9.0509768083797664e-03  -8.6524627470801595e-03  -8.2398129766565950e-03  -7.8235454487495127e-03  -7.4152610195400877e-03  -7.0312920596416889e-03  -6.6881150193427259e-03  -6.3965898221920179e-03  -6.1588633181476563e-03  -5.9708689609213128e-03  -5.8273596152962730e-03  -5.7253251257238583e-03  -5.6643500770390456e-03  -5.6451353146975110e-03  -5.6680240380021039e-03  -5.7324736499926960e-03  -5.8377765082754229e-03  -5.9848212381568159e-03  -6.1774712886513679e-03  -6.4214354832201510e-03  -6.7205243693389521e-03  -7.0706358456998899e-03  -7.4611205811981199e-03  -7.8787957101231244e-03  -8.3123517764106571e-03  -8.7332415993337381e-03  -9.1354291239025224e-03  -9.4864750413478326e-03  -9.8648099519620391e-03  -1.1588691121282533e-02  -1.5057494619867114e-02  -2.3245060690968381e-02  -3.1515954687471023e-02  -3.1505823242097039e-02  -3.1546360660692351e-02  -3.1539624885855842e-02  -3.1524721274604435e-02  -1.9161827743329127e-02  -1.7580322618750903e-03  -9.4153443881139984e-03  -3.1511716154251738e-02  -3.1515036870260700e-02  -3.1516504473531819e-02  -3.1515340922099885e-02  -3.1502939502371007e-02  -3.1510351531045790e-02  -3.1558787675896552e-02  -3.1482894419264100e-02  -1.9234977324936366e-02  -1.2025292988131781e-02  -1.0164477135058542e-02  -9.4689930054293776e-03  -8.9128467596613550e-03  -8.4096390536661427e-03  -7.9204669638012429e-03  -7.4488324880045333e-03  -7.0110571168067763e-03  -6.6274280272493923e-03  -6.3111268616015178e-03  -6.0611033782512107e-03  -5.8672440306877351e-03  -5.7195682956242564e-03  -5.6135095303347258e-03  -5.5493901845068052e-03  -5.5290692803133413e-03  -5.5533266771950153e-03  -5.6209913887396634e-03  -5.7299778793299056e-03  -5.8806844203489507e-03  -6.0792335662490206e-03  -6.3364703625265265e-03  -6.6625961430783111e-03  -7.0549847247453924e-03  -7.4973572164593709e-03  -7.9827265615067394e-03  -8.4930262813355095e-03  -9.0483070968215822e-03  -9.7074428964578265e-03  -1.0597437130820524e-02  -1.2936520676235110e-02  -1.9224185443368999e-02  -3.1190897311893156e-02  -3.1498511042744134e-02  -3.1521624422429895e-02  -3.1508044987366778e-02  -3.1515040189781851e-02  -3.1522755462781105e-02  -3.1521247966464341e-02  -3.1509605514991955e-02  -7.1360356533940166e-03  -1.5748729531614783e-02  -3.1523453318977414e-02  -3.1524700309549507e-02  -3.1522508871685111e-02  -3.1522632693049425e-02  -3.1520013430935433e-02  -3.1514349780715697e-02  -3.1506647480172525e-02  -3.1524956178530739e-02  -3.1465126647223784e-02  -2.4623018658023004e-02  -1.3795038758361817e-02  -1.0206229964280972e-02  -9.2236327078470785e-03  -8.6006323793665074e-03  -8.0258262306983109e-03  -7.4809371984362336e-03  -6.9778038384003946e-03  -6.5451526508918606e-03  -6.2028309510354382e-03  -5.9439062796905777e-03  -5.7477786637105789e-03  -5.5971980253725784e-03  -5.4863182064246773e-03  -5.4178334456666186e-03  -5.3959327011064992e-03  -5.4222085950633636e-03  -5.4944597007990197e-03  -5.6076584558981436e-03  -5.7601402815356060e-03  -5.9605956484003429e-03  -6.2282998073554478e-03  -6.5838135704642123e-03  -7.0302562087754521e-03  -7.5273653417202036e-03  -8.1021644299834866e-03  -8.7070246726437209e-03  -9.5492797633113177e-03  -1.1211569109573197e-02  -1.4497275596974226e-02  -2.3039300644823287e-02  -3.1586545235960710e-02  -3.1519374202833343e-02  -3.1493408036544213e-02  -3.1523079839083562e-02  -3.1523372931394109e-02  -3.1522195917928583e-02  -3.1524626261752342e-02  -3.1528203485168833e-02  -3.1529469350210088e-02  -1.5764290536894925e-02  -1.8326409007799187e-02  -3.1546313714297933e-02  -3.1512740926699957e-02  -3.1520143849417585e-02  -3.1521535121650152e-02  -3.1522852250645883e-02  -3.1525157099177775e-02  -3.1521036305196717e-02  -3.1506929907906184e-02  -3.1495166665452712e-02  -3.1471485908980461e-02  -3.0493185308609262e-02  -1.5604571602313568e-02  -1.0295436076744701e-02  -8.9290383933141870e-03  -8.1586656937833249e-03  -7.5198323832249489e-03  -6.9305360483340539e-03  -6.4342615707531688e-03  -6.0665576835446577e-03  -5.8062286837632935e-03  -5.6143827084809660e-03  -5.4625175220614497e-03  -5.3447746619840952e-03  -5.2696443900692395e-03  -5.2454144842170956e-03  -5.2748077508704199e-03  -5.3542976409752677e-03  -5.4734489038285126e-03  -5.6248753247784217e-03  -5.8202047556742608e-03  -6.0924584419526093e-03  -6.4762815560379418e-03  -7.0089690478567198e-03  -7.5725994441706648e-03  -8.2967904786820836e-03  -9.1957572644102824e-03  -1.1670318614903190e-02  -1.6365176240255814e-02  -2.7517402944403222e-02  -3.1460248616907466e-02  -3.1496220726125936e-02  -3.1526691522309504e-02  -3.1522470790988813e-02  -3.1521620800029550e-02  -3.1522349103707381e-02  -3.1519498702520597e-02  -3.1519017457511171e-02  -3.1519237783331891e-02  -3.1811792641896666e-02  -1.6626454502856543e-02  -2.8533108150671088e-02  -4.6141000215409206e-02  -3.5626243983992029e-02  -3.1521940186117495e-02  -3.1516230692971950e-02  -3.1518310903525373e-02  -3.1520919599238272e-02  -3.1524334414876766e-02  -3.1523085892528113e-02  -3.1509306618139901e-02  -3.1496433267038514e-02  -3.1542409778561466e-02  -3.1524283595119496e-02  -1.9112175391863950e-02  -1.1379793337284890e-02  -8.7029946490748949e-03  -7.6943475500415286e-03  -6.9132935209251954e-03  -6.3075109243543323e-03  -5.9113713704722036e-03  -5.6583448585135997e-03  -5.4792871409852307e-03  -5.3261770672899779e-03  -5.1960715460864799e-03  -5.1101453240684708e-03  -5.0824973933479914e-03  -5.1164542344210116e-03  -5.2088128577647431e-03  -5.3407119942077185e-03  -5.4900102803775138e-03  -5.6738540646821068e-03  -5.9469461916766917e-03  -6.3666157150872827e-03  -7.0817335178349067e-03  -7.8461730827972444e-03  -9.4045637583100444e-03  -1.2475090310761281e-02  -1.9008636664857078e-02  -3.1379320821536473e-02  -3.1519543554288577e-02  -3.1494134251649979e-02  -3.1516984135597156e-02  -3.1522219057979313e-02  -3.1520969197259857e-02  -3.1518640562826390e-02  -3.1515933627414901e-02  -3.1515599211871158e-02  -3.1524601277504116e-02  -3.7739648028919943e-02  -4.7930392216634470e-02  -2.5075225589121879e-02  -3.5080435911358496e-02  -6.0547320431170767e-02  -4.6020793515252401e-02  -3.5290156566866120e-02  -3.1519734768789089e-02  -3.1515450262967731e-02  -3.1515460170338065e-02  -3.1518070977614436e-02  -3.1522298004890793e-02  -3.1524936819632331e-02  -3.1517977334551223e-02  -3.1511373078757822e-02  -3.1545407439363661e-02  -3.1500231802974309e-02  -2.6612502118385787e-02  -1.5730336546422700e-02  -1.0387594835305530e-02  -7.8737138292813771e-03  -6.6741679344026117e-03  -6.0588834916088267e-03  -5.7167270398016026e-03  -5.5030832042420388e-03  -5.3167680483217133e-03  -5.1513235736312902e-03  -5.0447531909659339e-03  -5.0123305106254271e-03  -5.0548916050434699e-03  -5.1768136809323346e-03  -5.3533410910170448e-03  -5.5428837314854991e-03  -5.7908267600473590e-03  -6.2086997962385393e-03  -6.9538047667180346e-03  -8.7303146490843916e-03  -1.1258970693775768e-02  -1.5514593542468286e-02  -2.5198106294020299e-02  -3.1730121968094549e-02  -3.1572833710289488e-02  -3.1516256918504529e-02  -3.1524365213235636e-02  -3.1521583080993454e-02  -3.1520102612899670e-02  -3.1516120031458934e-02  -3.1515144618427408e-02  -3.1515404729761401e-02  -3.1524410115123046e-02  -3.6358366095675179e-02  -4.6459742292370251e-02  -6.0499968758336319e-02  -3.3666416766862793e-02  -3.4014017272957719e-02  -6.2913671143045025e-02  -5.0483749329457706e-02  -3.9847466065832386e-02  -3.2802662450594211e-02  -3.1516141637405862e-02  -3.1513835322821787e-02  -3.1513189188660654e-02  -3.1515795997356433e-02  -3.1521549264929186e-02  -3.1528142017437831e-02  -3.1525614134408665e-02  -3.1510876883174617e-02  -3.1518481989949991e-02  -3.1526532143328685e-02  -3.1404665442447764e-02  -2.8265047869095863e-02  -1.9395820583248062e-02  -1.4297439084879168e-02  -1.1647272936181997e-02  -1.0096398302713645e-02  -9.1351110991699375e-03  -8.4299543051476501e-03  -7.9594309172934183e-03  -7.7278117573721956e-03  -7.6758831980712457e-03  -7.7831570388990365e-03  -8.0956240715530474e-03  -8.5974463715610596e-03  -9.2170231771922812e-03  -1.0145807971768259e-02  -1.1695621773285819e-02  -1.4211260517307728e-02  -1.8996535834862691e-02  -2.7404434785161379e-02  -3.1143835448941077e-02  -3.1452988088071593e-02  -3.1520717185947768e-02  -3.1543897039704699e-02  -3.1533692004988394e-02  -3.1524959411170048e-02  -3.1519348365317924e-02  -3.1514400409908633e-02  -3.1514449185857059e-02  -3.1513118545872999e-02  -3.1518965516778186e-02  -3.3329587825027228e-02  -3.9794192578062361e-02  -4.9833479698514191e-02  -6.2143443151130073e-02  -3.5179886987005325e-02  -2.5772964448662158e-02  -5.2482194992193101e-02  -4.5937671112461262e-02  -3.9539045872143103e-02  -3.4226638186442900e-02  -3.1520946846569267e-02  -3.1514855375349676e-02  -3.1512089429004866e-02  -3.1511597012493640e-02  -3.1514989883706511e-02  -3.1521809902241585e-02  -3.1529909241788022e-02  -3.1529152729513309e-02  -3.1514671864113983e-02  -3.1505083483998358e-02  -3.1510797001532823e-02  -3.1540824324109727e-02  -3.1500640418433798e-02  -3.1456457477367007e-02  -3.1468719809694165e-02  -3.1389220032106264e-02  -3.1596288134510278e-02  -3.1003125460470411e-02  -2.9794514414301362e-02  -2.8999893994490364e-02  -2.8742639884887247e-02  -2.8950446125321942e-02  -2.9687132292647831e-02  -3.0892885522515082e-02  -3.1615656269571663e-02  -3.1448264206839029e-02  -3.1391849158857850e-02  -3.1493703541189348e-02  -3.1501485959052562e-02  -3.1611203903627413e-02  -3.1492440990261147e-02  -3.1467685638002604e-02  -3.1525293366143778e-02  -3.1530950027498804e-02  -3.1527814350266581e-02  -3.1520821367838618e-02  -3.1514394430637256e-02  -3.1512315814921067e-02  -3.1514363085200690e-02  -3.1510766383661667e-02  -3.1524413731354513e-02  -3.4120779133199171e-02  -3.8783429338801224e-02  -4.4793736869048549e-02  -5.1203111473365141e-02  -2.9052994849706179e-02  -1.6698727516932011e-02  -3.6184097172878266e-02  -3.5934645396898508e-02  -3.4727875787881862e-02  -3.2988124474994891e-02  -3.1532892676770653e-02  -3.1513231587602421e-02  -3.1514221226370036e-02  -3.1511172629956473e-02  -3.1511229139116727e-02  -3.1514934886012771e-02  -3.1521588097230317e-02  -3.1529219687925471e-02  -3.1532441256712944e-02  -3.1527273312603535e-02  -3.1519726046221982e-02  -3.1516582860251295e-02  -3.1503866892550296e-02  -3.1487721219585346e-02  -3.1493977508402438e-02  -3.1490413234865317e-02  -3.1505506314788483e-02  -3.1517863301574169e-02  -3.1497409965260868e-02  -3.1506056998371779e-02  -3.1512436048706273e-02  -3.1511068524156020e-02  -3.1502899328518824e-02  -3.1495970631764389e-02  -3.1516112483713721e-02  -3.1514761989788337e-02  -