<?xml version="1.0"?>
<VTKFile type="UnstructuredGrid"  version="0.1"  >
<UnstructuredGrid>
<Piece  NumberOfPoints="2601" NumberOfCells="5000">
<Points>
<DataArray  type="Float64"  NumberOfComponents="3"  format="ascii">0 0 0  0.03 0 0  0.06 0 0  0.09 0 0  0.12 0 0  0.15 0 0  0.18 0 0  0.21 0 0  0.24 0 0  0.27 0 0  0.3 0 0  0.33 0 0  0.36 0 0  0.39 0 0  0.42 0 0  0.45 0 0  0.48 0 0  0.51 0 0  0.54 0 0  0.57 0 0  0.6 0 0  0.63 0 0  0.66 0 0  0.6899999999999999 0 0  0.72 0 0  0.75 0 0  0.78 0 0  0.8100000000000001 0 0  0.84 0 0  0.87 0 0  0.9 0 0  0.93 0 0  0.96 0 0  0.99 0 0  1.02 0 0  1.05 0 0  1.08 0 0  1.11 0 0  1.14 0 0  1.17 0 0  1.2 0 0  1.23 0 0  1.26 0 0  1.29 0 0  1.32 0 0  1.35 0 0  1.38 0 0  1.41 0 0  1.44 0 0  1.47 0 0  1.5 0 0  0 0.02 0  0.03 0.02 0  0.06 0.02 0  0.09 0.02 0  0.12 0.02 0  0.15 0.02 0  0.18 0.02 0  0.21 0.02 0  0.24 0.02 0  0.27 0.02 0  0.3 0.02 0  0.33 0.02 0  0.36 0.02 0  0.39 0.02 0  0.42 0.02 0  0.45 0.02 0  0.48 0.02 0  0.51 0.02 0  0.54 0.02 0  0.57 0.02 0  0.6 0.02 0  0.63 0.02 0  0.66 0.02 0  0.6899999999999999 0.02 0  0.72 0.02 0  0.75 0.02 0  0.78 0.02 0  0.8100000000000001 0.02 0  0.84 0.02 0  0.87 0.02 0  0.9 0.02 0  0.93 0.02 0  0.96 0.02 0  0.99 0.02 0  1.02 0.02 0  1.05 0.02 0  1.08 0.02 0  1.11 0.02 0  1.14 0.02 0  1.17 0.02 0  1.2 0.02 0  1.23 0.02 0  1.26 0.02 0  1.29 0.02 0  1.32 0.02 0  1.35 0.02 0  1.38 0.02 0  1.41 0.02 0  1.44 0.02 0  1.47 0.02 0  1.5 0.02 0  0 0.04 0  0.03 0.04 0  0.06 0.04 0  0.09 0.04 0  0.12 0.04 0  0.15 0.04 0  0.18 0.04 0  0.21 0.04 0  0.24 0.04 0  0.27 0.04 0  0.3 0.04 0  0.33 0.04 0  0.36 0.04 0  0.39 0.04 0  0.42 0.04 0  0.45 0.04 0  0.48 0.04 0  0.51 0.04 0  0.54 0.04 0  0.57 0.04 0  0.6 0.04 0  0.63 0.04 0  0.66 0.04 0  0.6899999999999999 0.04 0  0.72 0.04 0  0.75 0.04 0  0.78 0.04 0  0.8100000000000001 0.04 0  0.84 0.04 0  0.87 0.04 0  0.9 0.04 0  0.93 0.04 0  0.96 0.04 0  0.99 0.04 0  1.02 0.04 0  1.05 0.04 0  1.08 0.04 0  1.11 0.04 0  1.14 0.04 0  1.17 0.04 0  1.2 0.04 0  1.23 0.04 0  1.26 0.04 0  1.29 0.04 0  1.32 0.04 0  1.35 0.04 0  1.38 0.04 0  1.41 0.04 0  1.44 0.04 0  1.47 0.04 0  1.5 0.04 0  0 0.06 0  0.03 0.06 0  0.06 0.06 0  0.09 0.06 0  0.12 0.06 0  0.15 0.06 0  0.18 0.06 0  0.21 0.06 0  0.24 0.06 0  0.27 0.06 0  0.3 0.06 0  0.33 0.06 0  0.36 0.06 0  0.39 0.06 0  0.42 0.06 0  0.45 0.06 0  0.48 0.06 0  0.51 0.06 0  0.54 0.06 0  0.57 0.06 0  0.6 0.06 0  0.63 0.06 0  0.66 0.06 0  0.6899999999999999 0.06 0  0.72 0.06 0  0.75 0.06 0  0.78 0.06 0  0.8100000000000001 0.06 0  0.84 0.06 0  0.87 0.06 0  0.9 0.06 0  0.93 0.06 0  0.96 0.06 0  0.99 0.06 0  1.02 0.06 0  1.05 0.06 0  1.08 0.06 0  1.11 0.06 0  1.14 0.06 0  1.17 0.06 0  1.2 0.06 0  1.23 0.06 0  1.26 0.06 0  1.29 0.06 0  1.32 0.06 0  1.35 0.06 0  1.38 0.06 0  1.41 0.06 0  1.44 0.06 0  1.47 0.06 0  1.5 0.06 0  0 0.08 0  0.03 0.08 0  0.06 0.08 0  0.09 0.08 0  0.12 0.08 0  0.15 0.08 0  0.18 0.08 0  0.21 0.08 0  0.24 0.08 0  0.27 0.08 0  0.3 0.08 0  0.33 0.08 0  0.36 0.08 0  0.39 0.08 0  0.42 0.08 0  0.45 0.08 0  0.48 0.08 0  0.51 0.08 0  0.54 0.08 0  0.57 0.08 0  0.6 0.08 0  0.63 0.08 0  0.66 0.08 0  0.6899999999999999 0.08 0  0.72 0.08 0  0.75 0.08 0  0.78 0.08 0  0.8100000000000001 0.08 0  0.84 0.08 0  0.87 0.08 0  0.9 0.08 0  0.93 0.08 0  0.96 0.08 0  0.99 0.08 0  1.02 0.08 0  1.05 0.08 0  1.08 0.08 0  1.11 0.08 0  1.14 0.08 0  1.17 0.08 0  1.2 0.08 0  1.23 0.08 0  1.26 0.08 0  1.29 0.08 0  1.32 0.08 0  1.35 0.08 0  1.38 0.08 0  1.41 0.08 0  1.44 0.08 0  1.47 0.08 0  1.5 0.08 0  0 0.1 0  0.03 0.1 0  0.06 0.1 0  0.09 0.1 0  0.12 0.1 0  0.15 0.1 0  0.18 0.1 0  0.21 0.1 0  0.24 0.1 0  0.27 0.1 0  0.3 0.1 0  0.33 0.1 0  0.36 0.1 0  0.39 0.1 0  0.42 0.1 0  0.45 0.1 0  0.48 0.1 0  0.51 0.1 0  0.54 0.1 0  0.57 0.1 0  0.6 0.1 0  0.63 0.1 0  0.66 0.1 0  0.6899999999999999 0.1 0  0.72 0.1 0  0.75 0.1 0  0.78 0.1 0  0.8100000000000001 0.1 0  0.84 0.1 0  0.87 0.1 0  0.9 0.1 0  0.93 0.1 0  0.96 0.1 0  0.99 0.1 0  1.02 0.1 0  1.05 0.1 0  1.08 0.1 0  1.11 0.1 0  1.14 0.1 0  1.17 0.1 0  1.2 0.1 0  1.23 0.1 0  1.26 0.1 0  1.29 0.1 0  1.32 0.1 0  1.35 0.1 0  1.38 0.1 0  1.41 0.1 0  1.44 0.1 0  1.47 0.1 0  1.5 0.1 0  0 0.12 0  0.03 0.12 0  0.06 0.12 0  0.09 0.12 0  0.12 0.12 0  0.15 0.12 0  0.18 0.12 0  0.21 0.12 0  0.24 0.12 0  0.27 0.12 0  0.3 0.12 0  0.33 0.12 0  0.36 0.12 0  0.39 0.12 0  0.42 0.12 0  0.45 0.12 0  0.48 0.12 0  0.51 0.12 0  0.54 0.12 0  0.57 0.12 0  0.6 0.12 0  0.63 0.12 0  0.66 0.12 0  0.6899999999999999 0.12 0  0.72 0.12 0  0.75 0.12 0  0.78 0.12 0  0.8100000000000001 0.12 0  0.84 0.12 0  0.87 0.12 0  0.9 0.12 0  0.93 0.12 0  0.96 0.12 0  0.99 0.12 0  1.02 0.12 0  1.05 0.12 0  1.08 0.12 0  1.11 0.12 0  1.14 0.12 0  1.17 0.12 0  1.2 0.12 0  1.23 0.12 0  1.26 0.12 0  1.29 0.12 0  1.32 0.12 0  1.35 0.12 0  1.38 0.12 0  1.41 0.12 0  1.44 0.12 0  1.47 0.12 0  1.5 0.12 0  0 0.14 0  0.03 0.14 0  0.06 0.14 0  0.09 0.14 0  0.12 0.14 0  0.15 0.14 0  0.18 0.14 0  0.21 0.14 0  0.24 0.14 0  0.27 0.14 0  0.3 0.14 0  0.33 0.14 0  0.36 0.14 0  0.39 0.14 0  0.42 0.14 0  0.45 0.14 0  0.48 0.14 0  0.51 0.14 0  0.54 0.14 0  0.57 0.14 0  0.6 0.14 0  0.63 0.14 0  0.66 0.14 0  0.6899999999999999 0.14 0  0.72 0.14 0  0.75 0.14 0  0.78 0.14 0  0.8100000000000001 0.14 0  0.84 0.14 0  0.87 0.14 0  0.9 0.14 0  0.93 0.14 0  0.96 0.14 0  0.99 0.14 0  1.02 0.14 0  1.05 0.14 0  1.08 0.14 0  1.11 0.14 0  1.14 0.14 0  1.17 0.14 0  1.2 0.14 0  1.23 0.14 0  1.26 0.14 0  1.29 0.14 0  1.32 0.14 0  1.35 0.14 0  1.38 0.14 0  1.41 0.14 0  1.44 0.14 0  1.47 0.14 0  1.5 0.14 0  0 0.16 0  0.03 0.16 0  0.06 0.16 0  0.09 0.16 0  0.12 0.16 0  0.15 0.16 0  0.18 0.16 0  0.21 0.16 0  0.24 0.16 0  0.27 0.16 0  0.3 0.16 0  0.33 0.16 0  0.36 0.16 0  0.39 0.16 0  0.42 0.16 0  0.45 0.16 0  0.48 0.16 0  0.51 0.16 0  0.54 0.16 0  0.57 0.16 0  0.6 0.16 0  0.63 0.16 0  0.66 0.16 0  0.6899999999999999 0.16 0  0.72 0.16 0  0.75 0.16 0  0.78 0.16 0  0.8100000000000001 0.16 0  0.84 0.16 0  0.87 0.16 0  0.9 0.16 0  0.93 0.16 0  0.96 0.16 0  0.99 0.16 0  1.02 0.16 0  1.05 0.16 0  1.08 0.16 0  1.11 0.16 0  1.14 0.16 0  1.17 0.16 0  1.2 0.16 0  1.23 0.16 0  1.26 0.16 0  1.29 0.16 0  1.32 0.16 0  1.35 0.16 0  1.38 0.16 0  1.41 0.16 0  1.44 0.16 0  1.47 0.16 0  1.5 0.16 0  0 0.18 0  0.03 0.18 0  0.06 0.18 0  0.09 0.18 0  0.12 0.18 0  0.15 0.18 0  0.18 0.18 0  0.21 0.18 0  0.24 0.18 0  0.27 0.18 0  0.3 0.18 0  0.33 0.18 0  0.36 0.18 0  0.39 0.18 0  0.42 0.18 0  0.45 0.18 0  0.48 0.18 0  0.51 0.18 0  0.54 0.18 0  0.57 0.18 0  0.6 0.18 0  0.63 0.18 0  0.66 0.18 0  0.6899999999999999 0.18 0  0.72 0.18 0  0.75 0.18 0  0.78 0.18 0  0.8100000000000001 0.18 0  0.84 0.18 0  0.87 0.18 0  0.9 0.18 0  0.93 0.18 0  0.96 0.18 0  0.99 0.18 0  1.02 0.18 0  1.05 0.18 0  1.08 0.18 0  1.11 0.18 0  1.14 0.18 0  1.17 0.18 0  1.2 0.18 0  1.23 0.18 0  1.26 0.18 0  1.29 0.18 0  1.32 0.18 0  1.35 0.18 0  1.38 0.18 0  1.41 0.18 0  1.44 0.18 0  1.47 0.18 0  1.5 0.18 0  0 0.2 0  0.03 0.2 0  0.06 0.2 0  0.09 0.2 0  0.12 0.2 0  0.15 0.2 0  0.18 0.2 0  0.21 0.2 0  0.24 0.2 0  0.27 0.2 0  0.3 0.2 0  0.33 0.2 0  0.36 0.2 0  0.39 0.2 0  0.42 0.2 0  0.45 0.2 0  0.48 0.2 0  0.51 0.2 0  0.54 0.2 0  0.57 0.2 0  0.6 0.2 0  0.63 0.2 0  0.66 0.2 0  0.6899999999999999 0.2 0  0.72 0.2 0  0.75 0.2 0  0.78 0.2 0  0.8100000000000001 0.2 0  0.84 0.2 0  0.87 0.2 0  0.9 0.2 0  0.93 0.2 0  0.96 0.2 0  0.99 0.2 0  1.02 0.2 0  1.05 0.2 0  1.08 0.2 0  1.11 0.2 0  1.14 0.2 0  1.17 0.2 0  1.2 0.2 0  1.23 0.2 0  1.26 0.2 0  1.29 0.2 0  1.32 0.2 0  1.35 0.2 0  1.38 0.2 0  1.41 0.2 0  1.44 0.2 0  1.47 0.2 0  1.5 0.2 0  0 0.22 0  0.03 0.22 0  0.06 0.22 0  0.09 0.22 0  0.12 0.22 0  0.15 0.22 0  0.18 0.22 0  0.21 0.22 0  0.24 0.22 0  0.27 0.22 0  0.3 0.22 0  0.33 0.22 0  0.36 0.22 0  0.39 0.22 0  0.42 0.22 0  0.45 0.22 0  0.48 0.22 0  0.51 0.22 0  0.54 0.22 0  0.57 0.22 0  0.6 0.22 0  0.63 0.22 0  0.66 0.22 0  0.6899999999999999 0.22 0  0.72 0.22 0  0.75 0.22 0  0.78 0.22 0  0.8100000000000001 0.22 0  0.84 0.22 0  0.87 0.22 0  0.9 0.22 0  0.93 0.22 0  0.96 0.22 0  0.99 0.22 0  1.02 0.22 0  1.05 0.22 0  1.08 0.22 0  1.11 0.22 0  1.14 0.22 0  1.17 0.22 0  1.2 0.22 0  1.23 0.22 0  1.26 0.22 0  1.29 0.22 0  1.32 0.22 0  1.35 0.22 0  1.38 0.22 0  1.41 0.22 0  1.44 0.22 0  1.47 0.22 0  1.5 0.22 0  0 0.24 0  0.03 0.24 0  0.06 0.24 0  0.09 0.24 0  0.12 0.24 0  0.15 0.24 0  0.18 0.24 0  0.21 0.24 0  0.24 0.24 0  0.27 0.24 0  0.3 0.24 0  0.33 0.24 0  0.36 0.24 0  0.39 0.24 0  0.42 0.24 0  0.45 0.24 0  0.48 0.24 0  0.51 0.24 0  0.54 0.24 0  0.57 0.24 0  0.6 0.24 0  0.63 0.24 0  0.66 0.24 0  0.6899999999999999 0.24 0  0.72 0.24 0  0.75 0.24 0  0.78 0.24 0  0.8100000000000001 0.24 0  0.84 0.24 0  0.87 0.24 0  0.9 0.24 0  0.93 0.24 0  0.96 0.24 0  0.99 0.24 0  1.02 0.24 0  1.05 0.24 0  1.08 0.24 0  1.11 0.24 0  1.14 0.24 0  1.17 0.24 0  1.2 0.24 0  1.23 0.24 0  1.26 0.24 0  1.29 0.24 0  1.32 0.24 0  1.35 0.24 0  1.38 0.24 0  1.41 0.24 0  1.44 0.24 0  1.47 0.24 0  1.5 0.24 0  0 0.26 0  0.03 0.26 0  0.06 0.26 0  0.09 0.26 0  0.12 0.26 0  0.15 0.26 0  0.18 0.26 0  0.21 0.26 0  0.24 0.26 0  0.27 0.26 0  0.3 0.26 0  0.33 0.26 0  0.36 0.26 0  0.39 0.26 0  0.42 0.26 0  0.45 0.26 0  0.48 0.26 0  0.51 0.26 0  0.54 0.26 0  0.57 0.26 0  0.6 0.26 0  0.63 0.26 0  0.66 0.26 0  0.6899999999999999 0.26 0  0.72 0.26 0  0.75 0.26 0  0.78 0.26 0  0.8100000000000001 0.26 0  0.84 0.26 0  0.87 0.26 0  0.9 0.26 0  0.93 0.26 0  0.96 0.26 0  0.99 0.26 0  1.02 0.26 0  1.05 0.26 0  1.08 0.26 0  1.11 0.26 0  1.14 0.26 0  1.17 0.26 0  1.2 0.26 0  1.23 0.26 0  1.26 0.26 0  1.29 0.26 0  1.32 0.26 0  1.35 0.26 0  1.38 0.26 0  1.41 0.26 0  1.44 0.26 0  1.47 0.26 0  1.5 0.26 0  0 0.28 0  0.03 0.28 0  0.06 0.28 0  0.09 0.28 0  0.12 0.28 0  0.15 0.28 0  0.18 0.28 0  0.21 0.28 0  0.24 0.28 0  0.27 0.28 0  0.3 0.28 0  0.33 0.28 0  0.36 0.28 0  0.39 0.28 0  0.42 0.28 0  0.45 0.28 0  0.48 0.28 0  0.51 0.28 0  0.54 0.28 0  0.57 0.28 0  0.6 0.28 0  0.63 0.28 0  0.66 0.28 0  0.6899999999999999 0.28 0  0.72 0.28 0  0.75 0.28 0  0.78 0.28 0  0.8100000000000001 0.28 0  0.84 0.28 0  0.87 0.28 0  0.9 0.28 0  0.93 0.28 0  0.96 0.28 0  0.99 0.28 0  1.02 0.28
[...]
<PointData  Scalars="sensitivity"> 
<DataArray  type="Float64"  Name="sensitivity"  format="ascii">-1.2416905155606267e-06  -1.7892191583046639e-05  -7.4452436413826516e-05  -1.8952774091873515e-04  -3.6340918595454465e-04  -5.7370323067154031e-04  -7.8907353209929025e-04  -9.8355361107949090e-04  -1.1422417217639179e-03  -1.2602811171978426e-03  -1.3392202905726164e-03  -1.3838177825743776e-03  -1.4001645138151252e-03  -1.3946655904006240e-03  -1.3734191023674724e-03  -1.3418417576455091e-03  -1.3044947564964575e-03  -1.2650510346691372e-03  -1.2263447171604394e-03  -1.1904650767109357e-03  -1.1588758918832287e-03  -1.1325471582072735e-03  -1.1120848797206567e-03  -1.0978446936094376e-03  -1.0900196516744479e-03  -1.0886989521024263e-03  -1.0938988729654593e-03  -1.1055680266933232e-03  -1.1235672587754709e-03  -1.1476222463152580e-03  -1.1772465159296214e-03  -1.2116359347635369e-03  -1.2495423903763885e-03  -1.2891402413210430e-03  -1.3279015719752489e-03  -1.3624959855399682e-03  -1.3887314277830657e-03  -1.4015568297039316e-03  -1.3951632885863307e-03  -1.3632514937134065e-03  -1.2994941427543485e-03  -1.1983478981357693e-03  -1.0565708314779828e-03  -8.7600994724382826e-04  -6.6723930979651366e-04  -4.5150379977200271e-04  -2.5844365067282505e-04  -1.1660065398374390e-04  -3.6867919257382703e-05  -5.2528457380222681e-06  -4.6188202368740694e-08  -9.0889355047942581e-06  -7.4809467392268790e-05  -2.9815549721150643e-04  -7.8379492687051348e-04  -1.5511648528890511e-03  -2.5116015651321160e-03  -3.5224807892702600e-03  -4.4557493211629913e-03  -5.2318593712538421e-03  -5.8202208735487187e-03  -6.2233127531227663e-03  -6.4608771569221813e-03  -6.5602982342878504e-03  -6.5513762287128241e-03  -6.4630870800310453e-03  -6.3215462432885360e-03  -6.1489894272460802e-03  -5.9634960615767207e-03  -5.7791497957570782e-03  -5.6064343536223540e-03  -5.4527665773807504e-03  -5.3231071188082754e-03  -5.2205821750018989e-03  -5.1470434049759864e-03  -5.1035116712829657e-03  -5.0904831099015972e-03  -5.1081016874656463e-03  -5.1562100235056493e-03  -5.2342827577657935e-03  -5.3412343525152690e-03  -5.4750878926453040e-03  -5.6325035443470835e-03  -5.8081962463105230e-03  -5.9943062590682283e-03  -6.1798012558832187e-03  -6.3499782457280976e-03  -6.4861434535814066e-03  -6.5655579239833972e-03  -6.5618341346098345e-03  -6.4459916472175164e-03  -6.1883602815453820e-03  -5.7618775289721372e-03  -5.1480368938050360e-03  -4.3478272394443240e-03  -3.3987915786394362e-03  -2.3874547051454705e-03  -1.4432234607389439e-03  -7.0631956801911521e-04  -2.5798054010638729e-04  -6.1444250930618708e-05  -3.4634236039597314e-06  -2.6123798299130976e-05  -1.4527061976023315e-04  -4.3474847063980034e-04  -1.0493272982587216e-03  -1.9916439994891312e-03  -3.1381081082894509e-03  -4.3216313672149844e-03  -5.3993228905929716e-03  -6.2857572119843991e-03  -6.9518267320893626e-03  -7.4035738574948010e-03  -7.6641504244578003e-03  -7.7648835283475005e-03  -7.7402850082955218e-03  -7.6241895121621902e-03  -7.4471381620335791e-03  -7.2351271772467130e-03  -7.0092985930444015e-03  -6.7861204663512247e-03  -6.5778168909273035e-03  -6.3929664991177445e-03  -6.2372236383423686e-03  -6.1140787016279617e-03  -6.0255493298395461e-03  -5.9727221153491493e-03  -5.9561185120323972e-03  -5.9758980157937286e-03  -6.0319207041367312e-03  -6.1236771357224915e-03  -6.2500722391207464e-03  -6.4090377622939478e-03  -6.5969621882281271e-03  -6.8079746816069771e-03  -7.0331808265009970e-03  -7.2599531340715468e-03  -7.4713504963964256e-03  -7.6457826957341728e-03  -7.7569604078111263e-03  -7.7743540812876284e-03  -7.6642619673767355e-03  -7.3925144828637197e-03  -6.9276876577408948e-03  -6.2463865462146764e-03  -5.3425467143279545e-03  -4.2508530491402741e-03  -3.0646797226374350e-03  -1.9231199342954104e-03  -9.9039748307744573e-04  -3.9624348629077090e-04  -1.2952115039688893e-04  -1.5878463727315712e-05  -4.2510225110786082e-05  -2.4535974262503211e-04  -6.4638548513742890e-04  -1.4040457345969317e-03  -2.4533403067605580e-03  -3.6403107551535581e-03  -4.8153099903622664e-03  -5.8514344773185952e-03  -6.6800004664527802e-03  -7.2887110945560997e-03  -7.6902640285393736e-03  -7.9071187065732525e-03  -7.9690915655013447e-03  -7.9102286052080625e-03  -7.7642785361115695e-03  -7.5615785791157911e-03  -7.3278312575122753e-03  -7.0839100676487682e-03  -6.8460469224408292e-03  -6.6261932203292573e-03  -6.4325634053969865e-03  -6.2703739249629839e-03  -6.1426776417446843e-03  -6.0511281891222337e-03  -5.9965578334800346e-03  -5.9793455898001979e-03  -5.9996103767413003e-03  -6.0572700228474366e-03  -6.1519800664511142e-03  -6.2829302319613103e-03  -6.4484519008795038e-03  -6.6454024579204974e-03  -6.8683651337752491e-03  -7.1088165282268707e-03  -7.3543947845125289e-03  -7.5883783719685339e-03  -7.7894194912686478e-03  -7.9314575793019201e-03  -7.9841652771005748e-03  -7.9141615483202081e-03  -7.6894154336608501e-03  -7.2787454108504332e-03  -6.6578955155719797e-03  -5.8102393435821090e-03  -4.7545052280107292e-03  -3.5733473610643639e-03  -2.3831374587096991e-03  -1.3266746412692960e-03  -5.7595381287539257e-04  -2.0971391175400621e-04  -3.3223711743747825e-05  -3.9424534990859970e-05  -3.6957036353436759e-04  -1.0665003635076519e-03  -2.1219513736941264e-03  -3.2919002926934293e-03  -4.4516866678551755e-03  -5.5517415169705998e-03  -6.4763548216757250e-03  -7.1846574877286575e-03  -7.6913155549642028e-03  -8.0107896707393086e-03  -8.1586155988602835e-03  -8.1608634884214395e-03  -8.0509052646128530e-03  -7.8620944831302372e-03  -7.6239099955143896e-03  -7.3611097829347025e-03  -7.0938111674021375e-03  -6.8376628021438839e-03  -6.6040444038748007e-03  -6.4004808701935935e-03  -6.2314033204556585e-03  -6.0991156926423536e-03  -6.0046780308990917e-03  -5.9485266334590907e-03  -5.9308259376047133e-03  -5.9516319693078612e-03  -6.0109408535754241e-03  -6.1086464924801935e-03  -6.2443708668763857e-03  -6.4170842546448989e-03  -6.6244296759756967e-03  -6.8617764428055500e-03  -7.1212626194327444e-03  -7.3910910685369173e-03  -7.6551246743747584e-03  -7.8924639513867842e-03  -8.0778692125274484e-03  -8.1821958239199320e-03  -8.1734442188495533e-03  -8.0207095732818343e-03  -7.6942626562877380e-03  -7.1832739474684444e-03  -6.4652803679350005e-03  -5.5139101734790847e-03  -4.4046685576843150e-03  -3.2440726903407613e-03  -2.0441721796582955e-03  -9.5521676358096934e-04  -2.7790933429396969e-04  -3.9653051815081883e-05  -4.3837477613625760e-05  -6.9864645553811236e-04  -2.6528743467517067e-03  -5.0038966798771223e-03  -6.1121939357337172e-03  -6.5202034470618134e-03  -6.9432916852141613e-03  -7.4253512400220909e-03  -7.8693915496375923e-03  -8.2171522120270939e-03  -8.4269453261299060e-03  -8.4832982941185388e-03  -8.4054144711316128e-03  -8.2272185730113342e-03  -7.9817741990537046e-03  -7.6970277322843273e-03  -7.3962247658874280e-03  -7.0984316694649380e-03  -6.8185867387678357e-03  -6.5673731272312000e-03  -6.3513663953894527e-03  -6.1738471853963828e-03  -6.0360301824605401e-03  -5.9381495489319635e-03  -5.8801214426641183e-03  -5.8618424912718677e-03  -5.8832905308264282e-03  -5.9445517753922011e-03  -6.0458144673844316e-03  -6.1872688458311743e-03  -6.3687798144200858e-03  -6.5891396943953814e-03  -6.8448669723357109e-03  -7.1289838567154505e-03  -7.4304578160203525e-03  -7.7337319129132543e-03  -8.0184445048643842e-03  -8.2618917430791663e-03  -8.4352106289697550e-03  -8.5063257890722020e-03  -8.4438267346263144e-03  -8.2599913425075375e-03  -7.9669241632441250e-03  -7.6305747425056631e-03  -7.2540084799405510e-03  -6.9468438646948646e-03  -6.3834322733586487e-03  -4.3789934294088360e-03  -1.8878045044922408e-03  -3.8612453504679366e-04  -2.6608350668075530e-05  -5.3984956652466454e-04  -2.9883817825657800e-03  -1.0730293176462831e-02  -1.9447905965202249e-02  -2.2131620433659918e-02  -1.8659449203453804e-02  -1.3696836110331716e-02  -1.0248528729693542e-02  -9.0364478209721700e-03  -8.9207937777623283e-03  -8.9530737621538372e-03  -8.8874685377373398e-03  -8.7058347603920436e-03  -8.4412071651624888e-03  -8.1253682080298182e-03  -7.7830637072658325e-03  -7.4352772933051871e-03  -7.0997666277735124e-03  -6.7907699723055888e-03  -6.5182840254158231e-03  -6.2876444308952745e-03  -6.1004730728192796e-03  -5.9564484684381724e-03  -5.8547231390507180e-03  -5.7945917948147886e-03  -5.7756575769935693e-03  -5.7978140108103857e-03  -5.8612339781996684e-03  -5.9664255993141443e-03  -6.1142616889903918e-03  -6.3057948770549408e-03  -6.5414682301979136e-03  -6.8194780993596120e-03  -7.1338451581900927e-03  -7.4743851946359047e-03  -7.8262239962719575e-03  -8.1707957037544729e-03  -8.4866279751469927e-03  -8.7431477560360234e-03  -8.9264183723114562e-03  -9.0134197895292579e-03  -9.1466432134231605e-03  -9.5915497156009999e-03  -1.1184382455381824e-02  -1.4022663751935310e-02  -1.8105992355448994e-02  -2.1930178854613253e-02  -2.0072947034194676e-02  -1.1881412246857608e-02  -2.4486549916528234e-03  -8.9811535019884920e-05  -1.7386533005909650e-03  -1.8309291379952547e-02  -3.0993007649533347e-02  -3.1181169306947969e-02  -3.1296424976586822e-02  -3.1409559007384236e-02  -3.0544936112404653e-02  -2.4548415903509063e-02  -1.4780569482428204e-02  -1.0643156189022215e-02  -9.7171009068685241e-03  -9.3923302935099949e-03  -9.0620406172156713e-03  -8.6899888979732522e-03  -8.2903188714316487e-03  -7.8797232260983830e-03  -7.4760495985157606e-03  -7.0955238676818312e-03  -6.7519057728579737e-03  -6.4548234403666313e-03  -6.2080004824265024e-03  -6.0105908875009578e-03  -5.8601178638123313e-03  -5.7543925164727072e-03  -5.6920451236787762e-03  -5.6724103710903313e-03  -5.6953083675247576e-03  -5.7609697512974473e-03  -5.8701860432842975e-03  -6.0245775365925106e-03  -6.2266923094766394e-03  -6.4793436120409121e-03  -6.7832610467340815e-03  -7.1334238766460802e-03  -7.5206132184676179e-03  -7.9314415038468280e-03  -8.3480725638622640e-03  -8.7447895482985084e-03  -9.1289131726565650e-03  -9.5120958481148057e-03  -9.9941111882737819e-03  -1.1625580002975309e-02  -1.5344115733711946e-02  -2.3273481768078291e-02  -3.0397817506260284e-02  -3.1216422015183026e-02  -3.1091595252296256e-02  -3.1341992669449592e-02  -3.1638856834773979e-02  -1.8605520746094961e-02  -1.5444952978971606e-03  -9.2234751450373589e-03  -3.1377254769828063e-02  -3.1411994133311603e-02  -3.1389957248838189e-02  -3.1393745610684663e-02  -3.1461246282310389e-02  -3.1470343336259796e-02  -3.1096419829069712e-02  -3.0096704856332052e-02  -1.9741801015784263e-02  -1.2427613648000581e-02  -1.0231836681770018e-02  -9.5019508344665691e-03  -8.9735320472238735e-03  -8.4745490117851402e-03  -7.9844098256907099e-03  -7.5159496304256709e-03  -7.0828273871035054e-03  -6.6987893906606810e-03  -6.3742372608368075e-03  -6.1106719004427393e-03  -5.9033197702166350e-03  -5.7466881708545664e-03  -5.6370607494386485e-03  -5.5724823881069807e-03  -5.5521269537587960e-03  -5.5757842433754685e-03  -5.6436680435797684e-03  -5.7567095180827447e-03  -5.9172537169060457e-03  -6.1295124726717717e-03  -6.3998045518053577e-03  -6.7331229926536010e-03  -7.1254556954318208e-03  -7.5663844460419211e-03  -8.0471705335486907e-03  -8.5493011734512313e-03  -9.0627910404036862e-03  -9.6972050841622453e-03  -1.0740172741812336e-02  -1.3262395668349979e-02  -1.9512645006210222e-02  -2.9620984945737335e-02  -3.1318810666341464e-02  -3.1325744295533940e-02  -3.1393237365769495e-02  -3.1377103578946929e-02  -3.1379072552463812e-02  -3.1459331232531591e-02  -3.1500580860011611e-02  -6.9328396731930149e-03  -1.5759103850141561e-02  -3.1553281895272255e-02  -3.1536231663879970e-02  -3.1507845076745165e-02  -3.1499798651023328e-02  -3.1485793035896076e-02  -3.1454384626807240e-02  -3.1387875400590265e-02  -3.1066072410486902e-02  -3.0545722495783360e-02  -2.4649785094251263e-02  -1.4226220159655757e-02  -1.0456371673054968e-02  -9.3550623256947966e-03  -8.6883296267595365e-03  -8.0965787345298017e-03  -7.5532879141066546e-03  -7.0589675535949088e-03  -6.6273630337516836e-03  -6.2730596839697629e-03  -5.9938240650753869e-03  -5.7780271265006232e-03  -5.6160848616207369e-03  -5.5028483535488190e-03  -5.4360635623001080e-03  -5.4149721282733257e-03  -5.4394317363298094e-03  -5.5094928600887159e-03  -5.6259418819648273e-03  -5.7916291668083019e-03  -6.0122207449048856e-03  -6.2993476196892464e-03  -6.6654081486237499e-03  -7.1087326549566917e-03  -7.6074284263941971e-03  -8.1845327119630020e-03  -8.8180480128398960e-03  -9.5995032076385944e-03  -1.1300825652039366e-02  -1.4929124787091096e-02  -2.3408425327194574e-02  -3.0667262951142974e-02  -3.1114481409342875e-02  -3.1383979369620466e-02  -3.1433288755849872e-02  -3.1473548018739271e-02  -3.1499183180908524e-02  -3.1507993088470916e-02  -3.1528343335114770e-02  -3.1557867144209190e-02  -1.5767925174284509e-02  -1.8479564636836057e-02  -3.2005721857809172e-02  -3.1556712259853348e-02  -3.1536702492710997e-02  -3.1538014809892788e-02  -3.1530711553475692e-02  -3.1510554217262211e-02  -3.1453550410215594e-02  -3.1356994599042079e-02  -3.1268938236802872e-02  -3.1356760703482457e-02  -2.8533801625145246e-02  -1.6311315033327462e-02  -1.0779762698666996e-02  -9.0994622431825444e-03  -8.2478059726910739e-03  -7.5978468845411687e-03  -7.0260915602023211e-03  -6.5338828622184524e-03  -6.1480765529274622e-03  -5.8568685827520197e-03  -5.6354506902609016e-03  -5.4693657147595314e-03  -5.3528121874777046e-03  -5.2837612849067593e-03  -5.2618931439990567e-03  -5.2872994356186224e-03  -5.3597007331872013e-03  -5.4791887590034923e-03  -5.6485509768190688e-03  -5.8745990580107797e-03  -6.1750729657898285e-03  -6.5780625203435633e-03  -7.0967969385422030e-03  -7.6674797178388002e-03  -8.4248701871482631e-03  -9.4962415631050460e-03  -1.1803847340991245e-02  -1.6779951570248544e-02  -2.7011835071201640e-02  -3.0996504769638139e-02  -3.1353449744967787e-02  -3.1348585460860411e-02  -3.1455546316642088e-02  -3.1505671822255353e-02  -3.1513568792125628e-02  -3.1521343190115847e-02  -3.1521606771021872e-02  -3.1556458996379801e-02  -3.2316087648028541e-02  -1.6878714068033478e-02  -2.8590153139882502e-02  -4.6320951723653324e-02  -3.5819491930116222e-02  -3.1608871246372752e-02  -3.1542293499387690e-02  -3.1528444054663478e-02  -3.1530979543954875e-02  -3.1518057355087614e-02  -3.1468109848823991e-02  -3.1414405608637938e-02  -3.1484972637536454e-02  -3.1352450451922420e-02  -3.0346400753159558e-02  -2.0052774841290200e-02  -1.2054242831562487e-02  -8.9893806574690913e-03  -7.8281696852841361e-03  -7.0549805891378676e-03  -6.4460358440064352e-03  -6.0177990533990360e-03  -5.7170831986279886e-03  -5.4904715741951214e-03  -5.3193249419627633e-03  -5.1985141534668846e-03  -5.1264501535804247e-03  -5.1036246741551555e-03  -5.1306744683945150e-03  -5.2071932147426435e-03  -5.3313779788305175e-03  -5.5062735482010790e-03  -5.7410039923918455e-03  -6.0531708920059692e-03  -6.5199452269970046e-03  -7.2073077210423097e-03  -8.0307193580733405e-03  -9.7579219938680843e-03  -1.3108419197340158e-02  -1.9648492492878977e-02  -2.9124006008921535e-02  -3.1078756692723933e-02  -3.1413944939568388e-02  -3.1437168585993477e-02  -3.1495986420748946e-02  -3.1503100649121776e-02  -3.1515056618879100e-02  -3.1513835793823344e-02  -3.1520719184115212e-02  -3.1667045110156562e-02  -3.7831357968978373e-02  -4.8079198864967504e-02  -2.5245022771463045e-02  -3.5118634428158435e-02  -6.0599653726535953e-02  -4.6090346597421450e-02  -3.5448889315300873e-02  -3.1607870643525507e-02  -3.1534338955372762e-02  -3.1517403890417565e-02  -3.1523899820979272e-02  -3.1526532322259916e-02  -3.1499261705081334e-02  -3.1458183643284156e-02  -3.1416122064621903e-02  -3.1133542047032205e-02  -3.0931116154734793e-02  -2.6445036140635519e-02  -1.6515049396557523e-02  -1.0987289809828275e-02  -8.3446806286730756e-03  -7.0082534537930282e-03  -6.2995095664152134e-03  -5.8756074850831522e-03  -5.5760091398505051e-03  -5.3610026296367977e-03  -5.2152371228842654e-03  -5.1301500871218375e-03  -5.1045427475898200e-03  -5.1395873599370777e-03  -5.2370656117237081e-03  -5.3955092854397280e-03  -5.6295777377742230e-03  -5.9696666642051165e-03  -6.4500990538917027e-03  -7.3454321598425193e-03  -9.0927973582860481e-03  -1.1688535172819309e-02  -1.6366633042616510e-02  -2.5514406741156851e-02  -3.1070632440719677e-02  -3.1028963215134233e-02  -3.1242521288789637e-02  -3.1457619800818272e-02  -3.1519466227578175e-02  -3.1511425652213473e-02  -3.1505140557199808e-02  -3.1510524351524578e-02  -3.1523783301678932e-02  -3.1659776614472224e-02  -3.6463637943750252e-02  -4.6533157345143079e-02  -6.0562213634212381e-02  -3.3710856804411354e-02  -3.4053628030381360e-02  -6.2949133365714866e-02  -5.0498419633821581e-02  -3.9934810565649001e-02  -3.3062648013274715e-02  -3.1568749294472842e-02  -3.1523224768174124e-02  -3.1505754106607366e-02  -3.1521305033747858e-02  -3.1538132464235993e-02  -3.1519011323730285e-02  -3.1457704207746878e-02  -3.1375259406430760e-02  -3.1296374891274667e-02  -3.1082612877471275e-02  -3.0563903236988155e-02  -2.7428716163186141e-02  -2.0239751980718260e-02  -1.5139646460329554e-02  -1.2379727661100088e-02  -1.0701943837519727e-02  -9.6038795184437802e-03  -8.9175094218475852e-03  -8.4991934850553175e-03  -8.2762866423647403e-03  -8.2166261194934632e-03  -8.3122717454756929e-03  -8.5761156999430363e-03  -9.0227846115481774e-03  -9.7366830966287756e-03  -1.0840956868941787e-02  -1.2376266635441273e-02  -1.5133871620155231e-02  -1.9877653000008367e-02  -2.6683678225204125e-02  -3.0209635862090523e-02  -3.1166593613175916e-02  -3.1531417563270929e-02  -3.1390764960452747e-02  -3.1425860149642867e-02  -3.1505187272170644e-02  -3.1512772508980047e-02  -3.1496931190520973e-02  -3.1501844661356464e-02  -3.1514284492727578e-02  -3.1580013580872153e-02  -3.3513834336960147e-02  -3.9866407277952272e-02  -4.9856432995933120e-02  -6.2182861181346603e-02  -3.5217369471326948e-02  -2.5860495752696590e-02  -5.2540624601053201e-02  -4.5959564471936942e-02  -3.9594357292853134e-02  -3.4435442649043656e-02  -3.1736554897188705e-02  -3.1547252540172828e-02  -3.1506460311947516e-02  -3.1500144802004866e-02  -3.1520751252878690e-02  -3.1541486539467332e-02  -3.1526286933886705e-02  -3.1467748103866669e-02  -3.1408170640257527e-02  -3.1366736766934349e-02  -3.1251309686334494e-02  -3.1159660210347925e-02  -3.1555643689224103e-02  -3.0839656051393459e-02  -3.0487143039390235e-02  -3.0212562244620728e-02  -2.9364452518270884e-02  -2.8638043436840250e-02  -2.8069275428505572e-02  -2.7675822295840501e-02  -2.7529606135997944e-02  -2.7647928417852081e-02  -2.8028580199672058e-02  -2.8597831240567702e-02  -2.9242457274502035e-02  -3.0066109074522590e-02  -3.0578867258171008e-02  -3.0597041521930265e-02  -3.1555288530025455e-02  -3.1176602682167650e-02  -3.1184015068501502e-02  -3.1320260869547978e-02  -3.1457460877338909e-02  -3.1512476079814881e-02  -3.1508124965402610e-02  -3.1505346543199191e-02  -3.1491177837733697e-02  -3.1486994030100413e-02  -3.1507639636243354e-02  -3.1534650187957036e-02  -3.1788181290211916e-02  -3.4300074569167199e-02  -3.8849493304515904e-02  -4.4814012882226160e-02  -5.1262972498679935e-02  -2.9101128784087337e-02  -1.6884661598434419e-02  -3.6330230737720980e-02  -3.6016977126897054e-02  -3.4841707052916789e-02  -3.3228820631034189e-02  -3.1874731527809105e-02  -3.1583743932994263e-02  -3.1529461981003121e-02  -3.1496999964745788e-02  -3.1496907781432590e-02  -3.1517480578543512e-02  -3.1539345557056342e-02  -3.1535600728838674e-02  -3.1497034945479875e-02  -3.1443433752450504e-02  -3.1386867255747193e-02  -3.1344843556584928e-02  -3.1439193119625959e-02  -3.1467161422385315e-02  -3.1310475974084248e-02  -3.1314020467387162e-02  -3.1302581228541730e-02  -3.1282002360270518e-02  -3.1307203677021923e-02  -3.1298488123167302e-02  -3.1282495126399266e-02  -3.1282029047225719e-02  -3.1293787079894365e-02  -3.1305125955907669e-02  -3.1284359148687213e-02  -3.1297538091739213e-02  -