<?xml version="1.0"?>
<VTKFile type="UnstructuredGrid"  version="0.1"  >
<UnstructuredGrid>
<Piece  NumberOfPoints="2601" NumberOfCells="5000">
<Points>
<DataArray  type="Float64"  NumberOfComponents="3"  format="ascii">0 0 0  0.03 0 0  0.06 0 0  0.09 0 0  0.12 0 0  0.15 0 0  0.18 0 0  0.21 0 0  0.24 0 0  0.27 0 0  0.3 0 0  0.33 0 0  0.36 0 0  0.39 0 0  0.42 0 0  0.45 0 0  0.48 0 0  0.51 0 0  0.54 0 0  0.57 0 0  0.6 0 0  0.63 0 0  0.66 0 0  0.6899999999999999 0 0  0.72 0 0  0.75 0 0  0.78 0 0  0.8100000000000001 0 0  0.84 0 0  0.87 0 0  0.9 0 0  0.93 0 0  0.96 0 0  0.99 0 0  1.02 0 0  1.05 0 0  1.08 0 0  1.11 0 0  1.14 0 0  1.17 0 0  1.2 0 0  1.23 0 0  1.26 0 0  1.29 0 0  1.32 0 0  1.35 0 0  1.38 0 0  1.41 0 0  1.44 0 0  1.47 0 0  1.5 0 0  0 0.02 0  0.03 0.02 0  0.06 0.02 0  0.09 0.02 0  0.12 0.02 0  0.15 0.02 0  0.18 0.02 0  0.21 0.02 0  0.24 0.02 0  0.27 0.02 0  0.3 0.02 0  0.33 0.02 0  0.36 0.02 0  0.39 0.02 0  0.42 0.02 0  0.45 0.02 0  0.48 0.02 0  0.51 0.02 0  0.54 0.02 0  0.57 0.02 0  0.6 0.02 0  0.63 0.02 0  0.66 0.02 0  0.6899999999999999 0.02 0  0.72 0.02 0  0.75 0.02 0  0.78 0.02 0  0.8100000000000001 0.02 0  0.84 0.02 0  0.87 0.02 0  0.9 0.02 0  0.93 0.02 0  0.96 0.02 0  0.99 0.02 0  1.02 0.02 0  1.05 0.02 0  1.08 0.02 0  1.11 0.02 0  1.14 0.02 0  1.17 0.02 0  1.2 0.02 0  1.23 0.02 0  1.26 0.02 0  1.29 0.02 0  1.32 0.02 0  1.35 0.02 0  1.38 0.02 0  1.41 0.02 0  1.44 0.02 0  1.47 0.02 0  1.5 0.02 0  0 0.04 0  0.03 0.04 0  0.06 0.04 0  0.09 0.04 0  0.12 0.04 0  0.15 0.04 0  0.18 0.04 0  0.21 0.04 0  0.24 0.04 0  0.27 0.04 0  0.3 0.04 0  0.33 0.04 0  0.36 0.04 0  0.39 0.04 0  0.42 0.04 0  0.45 0.04 0  0.48 0.04 0  0.51 0.04 0  0.54 0.04 0  0.57 0.04 0  0.6 0.04 0  0.63 0.04 0  0.66 0.04 0  0.6899999999999999 0.04 0  0.72 0.04 0  0.75 0.04 0  0.78 0.04 0  0.8100000000000001 0.04 0  0.84 0.04 0  0.87 0.04 0  0.9 0.04 0  0.93 0.04 0  0.96 0.04 0  0.99 0.04 0  1.02 0.04 0  1.05 0.04 0  1.08 0.04 0  1.11 0.04 0  1.14 0.04 0  1.17 0.04 0  1.2 0.04 0  1.23 0.04 0  1.26 0.04 0  1.29 0.04 0  1.32 0.04 0  1.35 0.04 0  1.38 0.04 0  1.41 0.04 0  1.44 0.04 0  1.47 0.04 0  1.5 0.04 0  0 0.06 0  0.03 0.06 0  0.06 0.06 0  0.09 0.06 0  0.12 0.06 0  0.15 0.06 0  0.18 0.06 0  0.21 0.06 0  0.24 0.06 0  0.27 0.06 0  0.3 0.06 0  0.33 0.06 0  0.36 0.06 0  0.39 0.06 0  0.42 0.06 0  0.45 0.06 0  0.48 0.06 0  0.51 0.06 0  0.54 0.06 0  0.57 0.06 0  0.6 0.06 0  0.63 0.06 0  0.66 0.06 0  0.6899999999999999 0.06 0  0.72 0.06 0  0.75 0.06 0  0.78 0.06 0  0.8100000000000001 0.06 0  0.84 0.06 0  0.87 0.06 0  0.9 0.06 0  0.93 0.06 0  0.96 0.06 0  0.99 0.06 0  1.02 0.06 0  1.05 0.06 0  1.08 0.06 0  1.11 0.06 0  1.14 0.06 0  1.17 0.06 0  1.2 0.06 0  1.23 0.06 0  1.26 0.06 0  1.29 0.06 0  1.32 0.06 0  1.35 0.06 0  1.38 0.06 0  1.41 0.06 0  1.44 0.06 0  1.47 0.06 0  1.5 0.06 0  0 0.08 0  0.03 0.08 0  0.06 0.08 0  0.09 0.08 0  0.12 0.08 0  0.15 0.08 0  0.18 0.08 0  0.21 0.08 0  0.24 0.08 0  0.27 0.08 0  0.3 0.08 0  0.33 0.08 0  0.36 0.08 0  0.39 0.08 0  0.42 0.08 0  0.45 0.08 0  0.48 0.08 0  0.51 0.08 0  0.54 0.08 0  0.57 0.08 0  0.6 0.08 0  0.63 0.08 0  0.66 0.08 0  0.6899999999999999 0.08 0  0.72 0.08 0  0.75 0.08 0  0.78 0.08 0  0.8100000000000001 0.08 0  0.84 0.08 0  0.87 0.08 0  0.9 0.08 0  0.93 0.08 0  0.96 0.08 0  0.99 0.08 0  1.02 0.08 0  1.05 0.08 0  1.08 0.08 0  1.11 0.08 0  1.14 0.08 0  1.17 0.08 0  1.2 0.08 0  1.23 0.08 0  1.26 0.08 0  1.29 0.08 0  1.32 0.08 0  1.35 0.08 0  1.38 0.08 0  1.41 0.08 0  1.44 0.08 0  1.47 0.08 0  1.5 0.08 0  0 0.1 0  0.03 0.1 0  0.06 0.1 0  0.09 0.1 0  0.12 0.1 0  0.15 0.1 0  0.18 0.1 0  0.21 0.1 0  0.24 0.1 0  0.27 0.1 0  0.3 0.1 0  0.33 0.1 0  0.36 0.1 0  0.39 0.1 0  0.42 0.1 0  0.45 0.1 0  0.48 0.1 0  0.51 0.1 0  0.54 0.1 0  0.57 0.1 0  0.6 0.1 0  0.63 0.1 0  0.66 0.1 0  0.6899999999999999 0.1 0  0.72 0.1 0  0.75 0.1 0  0.78 0.1 0  0.8100000000000001 0.1 0  0.84 0.1 0  0.87 0.1 0  0.9 0.1 0  0.93 0.1 0  0.96 0.1 0  0.99 0.1 0  1.02 0.1 0  1.05 0.1 0  1.08 0.1 0  1.11 0.1 0  1.14 0.1 0  1.17 0.1 0  1.2 0.1 0  1.23 0.1 0  1.26 0.1 0  1.29 0.1 0  1.32 0.1 0  1.35 0.1 0  1.38 0.1 0  1.41 0.1 0  1.44 0.1 0  1.47 0.1 0  1.5 0.1 0  0 0.12 0  0.03 0.12 0  0.06 0.12 0  0.09 0.12 0  0.12 0.12 0  0.15 0.12 0  0.18 0.12 0  0.21 0.12 0  0.24 0.12 0  0.27 0.12 0  0.3 0.12 0  0.33 0.12 0  0.36 0.12 0  0.39 0.12 0  0.42 0.12 0  0.45 0.12 0  0.48 0.12 0  0.51 0.12 0  0.54 0.12 0  0.57 0.12 0  0.6 0.12 0  0.63 0.12 0  0.66 0.12 0  0.6899999999999999 0.12 0  0.72 0.12 0  0.75 0.12 0  0.78 0.12 0  0.8100000000000001 0.12 0  0.84 0.12 0  0.87 0.12 0  0.9 0.12 0  0.93 0.12 0  0.96 0.12 0  0.99 0.12 0  1.02 0.12 0  1.05 0.12 0  1.08 0.12 0  1.11 0.12 0  1.14 0.12 0  1.17 0.12 0  1.2 0.12 0  1.23 0.12 0  1.26 0.12 0  1.29 0.12 0  1.32 0.12 0  1.35 0.12 0  1.38 0.12 0  1.41 0.12 0  1.44 0.12 0  1.47 0.12 0  1.5 0.12 0  0 0.14 0  0.03 0.14 0  0.06 0.14 0  0.09 0.14 0  0.12 0.14 0  0.15 0.14 0  0.18 0.14 0  0.21 0.14 0  0.24 0.14 0  0.27 0.14 0  0.3 0.14 0  0.33 0.14 0  0.36 0.14 0  0.39 0.14 0  0.42 0.14 0  0.45 0.14 0  0.48 0.14 0  0.51 0.14 0  0.54 0.14 0  0.57 0.14 0  0.6 0.14 0  0.63 0.14 0  0.66 0.14 0  0.6899999999999999 0.14 0  0.72 0.14 0  0.75 0.14 0  0.78 0.14 0  0.8100000000000001 0.14 0  0.84 0.14 0  0.87 0.14 0  0.9 0.14 0  0.93 0.14 0  0.96 0.14 0  0.99 0.14 0  1.02 0.14 0  1.05 0.14 0  1.08 0.14 0  1.11 0.14 0  1.14 0.14 0  1.17 0.14 0  1.2 0.14 0  1.23 0.14 0  1.26 0.14 0  1.29 0.14 0  1.32 0.14 0  1.35 0.14 0  1.38 0.14 0  1.41 0.14 0  1.44 0.14 0  1.47 0.14 0  1.5 0.14 0  0 0.16 0  0.03 0.16 0  0.06 0.16 0  0.09 0.16 0  0.12 0.16 0  0.15 0.16 0  0.18 0.16 0  0.21 0.16 0  0.24 0.16 0  0.27 0.16 0  0.3 0.16 0  0.33 0.16 0  0.36 0.16 0  0.39 0.16 0  0.42 0.16 0  0.45 0.16 0  0.48 0.16 0  0.51 0.16 0  0.54 0.16 0  0.57 0.16 0  0.6 0.16 0  0.63 0.16 0  0.66 0.16 0  0.6899999999999999 0.16 0  0.72 0.16 0  0.75 0.16 0  0.78 0.16 0  0.8100000000000001 0.16 0  0.84 0.16 0  0.87 0.16 0  0.9 0.16 0  0.93 0.16 0  0.96 0.16 0  0.99 0.16 0  1.02 0.16 0  1.05 0.16 0  1.08 0.16 0  1.11 0.16 0  1.14 0.16 0  1.17 0.16 0  1.2 0.16 0  1.23 0.16 0  1.26 0.16 0  1.29 0.16 0  1.32 0.16 0  1.35 0.16 0  1.38 0.16 0  1.41 0.16 0  1.44 0.16 0  1.47 0.16 0  1.5 0.16 0  0 0.18 0  0.03 0.18 0  0.06 0.18 0  0.09 0.18 0  0.12 0.18 0  0.15 0.18 0  0.18 0.18 0  0.21 0.18 0  0.24 0.18 0  0.27 0.18 0  0.3 0.18 0  0.33 0.18 0  0.36 0.18 0  0.39 0.18 0  0.42 0.18 0  0.45 0.18 0  0.48 0.18 0  0.51 0.18 0  0.54 0.18 0  0.57 0.18 0  0.6 0.18 0  0.63 0.18 0  0.66 0.18 0  0.6899999999999999 0.18 0  0.72 0.18 0  0.75 0.18 0  0.78 0.18 0  0.8100000000000001 0.18 0  0.84 0.18 0  0.87 0.18 0  0.9 0.18 0  0.93 0.18 0  0.96 0.18 0  0.99 0.18 0  1.02 0.18 0  1.05 0.18 0  1.08 0.18 0  1.11 0.18 0  1.14 0.18 0  1.17 0.18 0  1.2 0.18 0  1.23 0.18 0  1.26 0.18 0  1.29 0.18 0  1.32 0.18 0  1.35 0.18 0  1.38 0.18 0  1.41 0.18 0  1.44 0.18 0  1.47 0.18 0  1.5 0.18 0  0 0.2 0  0.03 0.2 0  0.06 0.2 0  0.09 0.2 0  0.12 0.2 0  0.15 0.2 0  0.18 0.2 0  0.21 0.2 0  0.24 0.2 0  0.27 0.2 0  0.3 0.2 0  0.33 0.2 0  0.36 0.2 0  0.39 0.2 0  0.42 0.2 0  0.45 0.2 0  0.48 0.2 0  0.51 0.2 0  0.54 0.2 0  0.57 0.2 0  0.6 0.2 0  0.63 0.2 0  0.66 0.2 0  0.6899999999999999 0.2 0  0.72 0.2 0  0.75 0.2 0  0.78 0.2 0  0.8100000000000001 0.2 0  0.84 0.2 0  0.87 0.2 0  0.9 0.2 0  0.93 0.2 0  0.96 0.2 0  0.99 0.2 0  1.02 0.2 0  1.05 0.2 0  1.08 0.2 0  1.11 0.2 0  1.14 0.2 0  1.17 0.2 0  1.2 0.2 0  1.23 0.2 0  1.26 0.2 0  1.29 0.2 0  1.32 0.2 0  1.35 0.2 0  1.38 0.2 0  1.41 0.2 0  1.44 0.2 0  1.47 0.2 0  1.5 0.2 0  0 0.22 0  0.03 0.22 0  0.06 0.22 0  0.09 0.22 0  0.12 0.22 0  0.15 0.22 0  0.18 0.22 0  0.21 0.22 0  0.24 0.22 0  0.27 0.22 0  0.3 0.22 0  0.33 0.22 0  0.36 0.22 0  0.39 0.22 0  0.42 0.22 0  0.45 0.22 0  0.48 0.22 0  0.51 0.22 0  0.54 0.22 0  0.57 0.22 0  0.6 0.22 0  0.63 0.22 0  0.66 0.22 0  0.6899999999999999 0.22 0  0.72 0.22 0  0.75 0.22 0  0.78 0.22 0  0.8100000000000001 0.22 0  0.84 0.22 0  0.87 0.22 0  0.9 0.22 0  0.93 0.22 0  0.96 0.22 0  0.99 0.22 0  1.02 0.22 0  1.05 0.22 0  1.08 0.22 0  1.11 0.22 0  1.14 0.22 0  1.17 0.22 0  1.2 0.22 0  1.23 0.22 0  1.26 0.22 0  1.29 0.22 0  1.32 0.22 0  1.35 0.22 0  1.38 0.22 0  1.41 0.22 0  1.44 0.22 0  1.47 0.22 0  1.5 0.22 0  0 0.24 0  0.03 0.24 0  0.06 0.24 0  0.09 0.24 0  0.12 0.24 0  0.15 0.24 0  0.18 0.24 0  0.21 0.24 0  0.24 0.24 0  0.27 0.24 0  0.3 0.24 0  0.33 0.24 0  0.36 0.24 0  0.39 0.24 0  0.42 0.24 0  0.45 0.24 0  0.48 0.24 0  0.51 0.24 0  0.54 0.24 0  0.57 0.24 0  0.6 0.24 0  0.63 0.24 0  0.66 0.24 0  0.6899999999999999 0.24 0  0.72 0.24 0  0.75 0.24 0  0.78 0.24 0  0.8100000000000001 0.24 0  0.84 0.24 0  0.87 0.24 0  0.9 0.24 0  0.93 0.24 0  0.96 0.24 0  0.99 0.24 0  1.02 0.24 0  1.05 0.24 0  1.08 0.24 0  1.11 0.24 0  1.14 0.24 0  1.17 0.24 0  1.2 0.24 0  1.23 0.24 0  1.26 0.24 0  1.29 0.24 0  1.32 0.24 0  1.35 0.24 0  1.38 0.24 0  1.41 0.24 0  1.44 0.24 0  1.47 0.24 0  1.5 0.24 0  0 0.26 0  0.03 0.26 0  0.06 0.26 0  0.09 0.26 0  0.12 0.26 0  0.15 0.26 0  0.18 0.26 0  0.21 0.26 0  0.24 0.26 0  0.27 0.26 0  0.3 0.26 0  0.33 0.26 0  0.36 0.26 0  0.39 0.26 0  0.42 0.26 0  0.45 0.26 0  0.48 0.26 0  0.51 0.26 0  0.54 0.26 0  0.57 0.26 0  0.6 0.26 0  0.63 0.26 0  0.66 0.26 0  0.6899999999999999 0.26 0  0.72 0.26 0  0.75 0.26 0  0.78 0.26 0  0.8100000000000001 0.26 0  0.84 0.26 0  0.87 0.26 0  0.9 0.26 0  0.93 0.26 0  0.96 0.26 0  0.99 0.26 0  1.02 0.26 0  1.05 0.26 0  1.08 0.26 0  1.11 0.26 0  1.14 0.26 0  1.17 0.26 0  1.2 0.26 0  1.23 0.26 0  1.26 0.26 0  1.29 0.26 0  1.32 0.26 0  1.35 0.26 0  1.38 0.26 0  1.41 0.26 0  1.44 0.26 0  1.47 0.26 0  1.5 0.26 0  0 0.28 0  0.03 0.28 0  0.06 0.28 0  0.09 0.28 0  0.12 0.28 0  0.15 0.28 0  0.18 0.28 0  0.21 0.28 0  0.24 0.28 0  0.27 0.28 0  0.3 0.28 0  0.33 0.28 0  0.36 0.28 0  0.39 0.28 0  0.42 0.28 0  0.45 0.28 0  0.48 0.28 0  0.51 0.28 0  0.54 0.28 0  0.57 0.28 0  0.6 0.28 0  0.63 0.28 0  0.66 0.28 0  0.6899999999999999 0.28 0  0.72 0.28 0  0.75 0.28 0  0.78 0.28 0  0.8100000000000001 0.28 0  0.84 0.28 0  0.87 0.28 0  0.9 0.28 0  0.93 0.28 0  0.96 0.28 0  0.99 0.28 0  1.02 0.28
[...]
<PointData  Scalars="sensitivity"> 
<DataArray  type="Float64"  Name="sensitivity"  format="ascii">-3.1826986750526357e-07  -6.6725945883162700e-06  -3.0422837909960093e-05  -8.2282592190348363e-05  -1.6438051324629683e-04  -2.6705889889506215e-04  -3.7579915111753646e-04  -4.7815931885078418e-04  -5.6623838331438365e-04  -6.3727313219760664e-04  -6.9336738328124080e-04  -7.3952506048481756e-04  -7.8062524703670366e-04  -8.1932784336973192e-04  -8.5591371096230696e-04  -8.8939166483853786e-04  -9.1867406248008433e-04  -9.4317403834290933e-04  -9.6286896074907543e-04  -9.7813377843356517e-04  -9.8955412066729703e-04  -9.9778252591435006e-04  -1.0034372128663724e-03  -1.0070342913801617e-03  -1.0089459481136317e-03  -1.0093779419365850e-03  -1.0083615412313951e-03  -1.0057562503030585e-03  -1.0012594364798985e-03  -9.9442104170970351e-04  -9.8466830081427969e-04  -9.7135134769718362e-04  -9.5382045741744818e-04  -9.3154886000909381e-04  -9.0432639715466300e-04  -8.7251119635614344e-04  -8.3714569499742991e-04  -7.9952182467467228e-04  -7.5996549603735955e-04  -7.1646222761985500e-04  -6.6454019893810766e-04  -5.9923513926500788e-04  -5.1790181167703350e-04  -4.2164124801234183e-04  -3.1534338715790935e-04  -2.0836378979548055e-04  -1.1482379900582713e-04  -4.8652458608221183e-05  -1.3914697748976557e-05  -1.4865434478333221e-06  -4.2776629056294682e-09  -3.5829764111180657e-06  -5.4088073269287462e-05  -2.4084422047734367e-04  -6.7182972619966007e-04  -1.3810058884986933e-03  -2.2867550881557623e-03  -3.2526101218590593e-03  -4.1590892909084340e-03  -4.9310380263185112e-03  -5.5415016400425171e-03  -6.0084330009737199e-03  -6.3782654500484162e-03  -6.6989112208398413e-03  -6.9991252277878304e-03  -7.2850722196588624e-03  -7.5495279728432958e-03  -7.7828568926764244e-03  -7.9791475870516198e-03  -8.1373355860120088e-03  -8.2599588507858111e-03  -8.3515694793738458e-03  -8.4174760657430691e-03  -8.4628463226053604e-03  -8.4921001641548571e-03  -8.5085337708512669e-03  -8.5141147460880296e-03  -8.5094010149488475e-03  -8.4935507489877597e-03  -8.4643891062410569e-03  -8.4185072396998420e-03  -8.3514223957808151e-03  -8.2578892156086221e-03  -8.1324554159671568e-03  -7.9703586458204981e-03  -7.7689867786185354e-03  -7.5300252767415065e-03  -7.2611290950583612e-03  -6.9736700869925967e-03  -6.6734184375089062e-03  -6.3475585559259629e-03  -5.9596202161791472e-03  -5.4618531413519692e-03  -4.8189461400761921e-03  -4.0248568324514232e-03  -3.1078613500810817e-03  -2.1407956579228438e-03  -1.2489178382010179e-03  -5.7528029600076942e-04  -1.9114889568295717e-04  -3.6133015701536142e-05  -1.0000554693941872e-06  -1.1228405223383453e-05  -1.2387175861874861e-04  -4.6326722602203020e-04  -1.2418999994159394e-03  -2.5134438642564448e-03  -4.0933884185006706e-03  -5.7141096864860774e-03  -7.1719617817285969e-03  -8.3588947536730931e-03  -9.2477008056229843e-03  -9.8822632720153743e-03  -1.0352188584326155e-02  -1.0745749986534537e-02  -1.1113937060679086e-02  -1.1467235482818897e-02  -1.1794238438345567e-02  -1.2080806770468227e-02  -1.2319112023812461e-02  -1.2508303693841871e-02  -1.2652240894423055e-02  -1.2757326709732911e-02  -1.2830951162090666e-02  -1.2880336746603578e-02  -1.2911699466547208e-02  -1.2929706048978355e-02  -1.2937171692691091e-02  -1.2934942813392634e-02  -1.2921926780185567e-02  -1.2895209684011151e-02  -1.2850191597190187e-02  -1.2780751373214673e-02  -1.2679581299878270e-02  -1.2538839560387385e-02  -1.2351218370498367e-02  -1.2111810339163144e-02  -1.1821462086101558e-02  -1.1490549784438826e-02  -1.1137235025930718e-02  -1.0772491671358532e-02  -1.0375554926923570e-02  -9.8825124582794487e-03  -9.2094126204522366e-03  -8.2938454871174221e-03  -7.1112408791812196e-03  -5.6689591260074878e-03  -4.0448557659827104e-03  -2.4479817775319140e-03  -1.1773372293761180e-03  -4.2308838126107101e-04  -1.0538060435745553e-04  -6.3682095969201386e-06  -1.9840626418812502e-05  -2.3589415867291720e-04  -8.4876749364973291e-04  -2.1855199220516910e-03  -4.2012122033523039e-03  -6.4551168926679147e-03  -8.5387795919385917e-03  -1.0261163101948001e-02  -1.1567013743496038e-02  -1.2462339287108022e-02  -1.3020105429485070e-02  -1.3371774016806611e-02  -1.3644261079570558e-02  -1.3904917428372198e-02  -1.4160655091393665e-02  -1.4391617531507188e-02  -1.4580841050321583e-02  -1.4723573516839429e-02  -1.4823671247012478e-02  -1.4888501136104947e-02  -1.4926347839459548e-02  -1.4945390813002236e-02  -1.4953073675073746e-02  -1.4955582533222990e-02  -1.4957448478124288e-02  -1.4961269598474740e-02  -1.4967575609711374e-02  -1.4974875461841926e-02  -1.4979835738098864e-02  -1.4977444698225440e-02  -1.4961115566142021e-02  -1.4922917726286114e-02  -1.4854130483477447e-02  -1.4746108703357420e-02  -1.4591988469736269e-02  -1.4391144614949895e-02  -1.4156747796313719e-02  -1.3917904917489763e-02  -1.3699746642537657e-02  -1.3478243519700801e-02  -1.3144161829354819e-02  -1.2536554557415999e-02  -1.1551395854251315e-02  -1.0194630721629723e-02  -8.4894694074623567e-03  -6.4182471448381937e-03  -4.1034860086417903e-03  -2.0404032390548901e-03  -7.4228043198485175e-04  -1.9353083218220219e-04  -1.4755622818464125e-05  -2.3113351379951984e-05  -4.5662867574032393e-04  -1.9806432354302996e-03  -4.9180421589309657e-03  -8.3988606400603270e-03  -1.1467183133231487e-02  -1.3863171906107962e-02  -1.5620964545940863e-02  -1.6754150363617021e-02  -1.7287548118071826e-02  -1.7378899210416153e-02  -1.7277350055391650e-02  -1.7181092014605454e-02  -1.7165119816237816e-02  -1.7208078844862910e-02  -1.7257296733144269e-02  -1.7275937636286671e-02  -1.7253781671922406e-02  -1.7197177667938254e-02  -1.7118279700881162e-02  -1.7029811284839491e-02  -1.6943117955043080e-02  -1.6867413163490979e-02  -1.6809636109330475e-02  -1.6774560319198412e-02  -1.6764819235748005e-02  -1.6780845558350455e-02  -1.6820915669823119e-02  -1.6881316490867170e-02  -1.6956402715483977e-02  -1.7038458911549266e-02  -1.7117821285464949e-02  -1.7183770447857811e-02  -1.7225774240111923e-02  -1.7234759201367272e-02  -1.7207386292469255e-02  -1.7157748673765544e-02  -1.7130018942557487e-02  -1.7186946906219545e-02  -1.7352874064722006e-02  -1.7533032859563577e-02  -1.7487360013308317e-02  -1.6947720633406001e-02  -1.5801515661833906e-02  -1.4054406143311885e-02  -1.1664903396679860e-02  -8.4972662176184821e-03  -4.7155549811054341e-03  -1.6589862471923960e-03  -3.2910187010906866e-04  -1.9884170390049531e-05  -2.6874392176212973e-05  -1.2584013417135027e-03  -5.6403103150443898e-03  -1.1550886393042822e-02  -1.6460626595046501e-02  -1.9354840115932640e-02  -2.1139880759096424e-02  -2.2314298199619546e-02  -2.2817106247210662e-02  -2.2692629318223488e-02  -2.2169635526034036e-02  -2.1557380953262945e-02  -2.1079156884969835e-02  -2.0789978458572771e-02  -2.0625930040638292e-02  -2.0497697703028853e-02  -2.0348604717758668e-02  -2.0161834300131874e-02  -1.9943966557737450e-02  -1.9710708849605820e-02  -1.9480195983000319e-02  -1.9269561735253054e-02  -1.9092695335006266e-02  -1.8959516245716096e-02  -1.8876447423365542e-02  -1.8847085988695007e-02  -1.8872595980430205e-02  -1.8951967206840451e-02  -1.9082215184216895e-02  -1.9258186094129773e-02  -1.9471720641189450e-02  -1.9710884331788622e-02  -1.9960670828131435e-02  -2.0205258760514291e-02  -2.0430106891463996e-02  -2.0625033778899675e-02  -2.0794756358843272e-02  -2.0976544580396911e-02  -2.1241784600498137e-02  -2.1650138392177977e-02  -2.2166785673396562e-02  -2.2622984228030558e-02  -2.2806684849890544e-02  -2.2600371581290180e-02  -2.1809259584062209e-02  -1.9981133749271168e-02  -1.6951824518653558e-02  -1.2128551591541645e-02  -5.1362086677330587e-03  -7.1540354165686951e-04  -1.7507186318395537e-05  -1.7342927941032193e-04  -5.1321938764228772e-03  -1.6440516086952288e-02  -2.1335276909496423e-02  -2.4053487355074208e-02  -2.6588377060297985e-02  -2.7613984812353536e-02  -2.7941739234682905e-02  -2.7818918411285323e-02  -2.7280414961961486e-02  -2.6491973016686311e-02  -2.5683489996326095e-02  -2.5038708496727506e-02  -2.4607072598549409e-02  -2.4320051507863615e-02  -2.4077018908920757e-02  -2.3810335110506935e-02  -2.3497369704763706e-02  -2.3144533152493783e-02  -2.2771876862448016e-02  -2.2405007839606816e-02  -2.2070086314163986e-02  -2.1789850824888917e-02  -2.1581498493333399e-02  -2.1456524513455699e-02  -2.1421401925540560e-02  -2.1478220950977931e-02  -2.1625164934119472e-02  -2.1856860213278120e-02  -2.2164263421283126e-02  -2.2533641423784424e-02  -2.2945042016801354e-02  -2.3372040100167843e-02  -2.3784739307038102e-02  -2.4156397999389578e-02  -2.4473484572992431e-02  -2.4749903477124718e-02  -2.5039641036779487e-02  -2.5425273178560043e-02  -2.5959406643209674e-02  -2.6585857638127309e-02  -2.7139008528986239e-02  -2.7486449660078467e-02  -2.7671975966408288e-02  -2.7719757554988289e-02  -2.7204616227418699e-02  -2.5792527889152202e-02  -2.2568155254000376e-02  -1.6100902458617575e-02  -3.5916912463098993e-03  -2.2009992233277277e-05  -1.3054097824910826e-03  -1.5973041205418499e-02  -2.9093026145184064e-02  -3.1544980817684115e-02  -2.8731996851221072e-02  -2.8769335316655945e-02  -2.9130616762896241e-02  -2.9186376153974944e-02  -2.9171307446828061e-02  -2.9005260418973583e-02  -2.8671759135681797e-02  -2.8258795549814135e-02  -2.7888175636521663e-02  -2.7626213119355408e-02  -2.7448206864960457e-02  -2.7282110402734962e-02  -2.7068061053407609e-02  -2.6782268121632539e-02  -2.6430294419658325e-02  -2.6034557485631632e-02  -2.5626452870228598e-02  -2.5240940119303192e-02  -2.4911389838457594e-02  -2.4665447412922197e-02  -2.4522719143704481e-02  -2.4493855057154176e-02  -2.4580289902175062e-02  -2.4774364522824152e-02  -2.5059886333615979e-02  -2.5413141103295289e-02  -2.5804275998975550e-02  -2.6199251825973779e-02  -2.6563176801019200e-02  -2.6866081038960373e-02  -2.7091514520768856e-02  -2.7247255725878588e-02  -2.7375288904928279e-02  -2.7551282309505414e-02  -2.7854495179084712e-02  -2.8298287443088817e-02  -2.8761744015256267e-02  -2.9024774419119843e-02  -2.8959857417277433e-02  -2.8719857450779641e-02  -2.8670753945065654e-02  -2.9054242955613128e-02  -2.9840277285890948e-02  -3.0040875435589059e-02  -2.7662668034780551e-02  -1.5039143181309703e-02  -2.2106986163291140e-04  -6.6046695590873863e-03  -2.9690672201478325e-02  -2.9717451869932399e-02  -2.9640892587745299e-02  -2.8266015109866909e-02  -2.7694651863838859e-02  -2.8296095246997343e-02  -2.8862082725674979e-02  -2.9260052448140561e-02  -2.9451784606656439e-02  -2.9445499634690803e-02  -2.9333796197167965e-02  -2.9238250570287314e-02  -2.9238184590485775e-02  -2.9331388833711843e-02  -2.9453228756543510e-02  -2.9525647322079920e-02  -2.9494485565877599e-02  -2.9341284228096853e-02  -2.9078936024419095e-02  -2.8742442081431036e-02  -2.8379076550863875e-02  -2.8038817725736305e-02  -2.7766105293536115e-02  -2.7593985216244787e-02  -2.7540770692669612e-02  -2.7608677142195143e-02  -2.7783970079875337e-02  -2.8038598491124479e-02  -2.8333585724733299e-02  -2.8624377888381097e-02  -2.8867903321917632e-02  -2.9030481769891738e-02  -2.9095330035723264e-02  -2.9068576258361425e-02  -2.8982990477295561e-02  -2.8897302180523856e-02  -2.8884564688805865e-02  -2.8999406366995759e-02  -2.9223746931592746e-02  -2.9425670217557130e-02  -2.9405107674616581e-02  -2.9056146291861588e-02  -2.8507927474470729e-02  -2.8056476585922009e-02  -2.7945582466191825e-02  -2.8279788147784750e-02  -2.8888021046182592e-02  -2.9566123714371947e-02  -2.9572093877739590e-02  -4.3910776729712553e-03  -1.6507141903222312e-02  -3.3790744331616301e-02  -3.3135334213894821e-02  -3.1273154414856508e-02  -3.0244557841307779e-02  -2.9626796684318633e-02  -2.9767943785265257e-02  -3.0177306641674780e-02  -3.0514046115601483e-02  -3.0640311115181947e-02  -3.0540307145440888e-02  -3.0314454095460068e-02  -3.0101169552342148e-02  -3.0000564880608798e-02  -3.0038339264903922e-02  -3.0175871299321144e-02  -3.0344837242317450e-02  -3.0479609022540446e-02  -3.0535245584664771e-02  -3.0493072096997906e-02  -3.0359633406088323e-02  -3.0162059870823495e-02  -2.9940554514571185e-02  -2.9738967329404144e-02  -2.9595409434912318e-02  -2.9534864348353399e-02  -2.9564898363828494e-02  -2.9674759000442179e-02  -2.9837804508479837e-02  -3.0017061314242019e-02  -3.0173276872245407e-02  -3.0273993340834741e-02  -3.0301419523014551e-02  -3.0257067289712090e-02  -3.0162503213241456e-02  -3.0056927794335647e-02  -2.9991390539521746e-02  -3.0015738283069152e-02  -3.0152616035667986e-02  -3.0362737433372793e-02  -3.0531736965332849e-02  -3.0527135110359409e-02  -3.0322874705217873e-02  -3.0071341579674071e-02  -3.0007518952572365e-02  -3.0266670090343149e-02  -3.0885818818666207e-02  -3.1850210541866764e-02  -3.2448575927487094e-02  -3.3101355425202338e-02  -1.5816201497993718e-02  -2.2471978768269292e-02  -3.9838724602984814e-02  -3.6897738195462881e-02  -3.4723959164902313e-02  -3.3023106172095786e-02  -3.1991575937564472e-02  -3.1676320522299864e-02  -3.1752854016011633e-02  -3.1925944264637483e-02  -3.1988403602761874e-02  -3.1843039241283691e-02  -3.1537975804460883e-02  -3.1196028112500367e-02  -3.0925556813103380e-02  -3.0774924786104361e-02  -3.0733108090721242e-02  -3.0754011806263488e-02  -3.0783203242899470e-02  -3.0776674838107206e-02  -3.0710280755619667e-02  -3.0581995937446000e-02  -3.0409116668915288e-02  -3.0221979489034344e-02  -3.0055843797757439e-02  -2.9942755092169412e-02  -2.9904919391413955e-02  -2.9950484623372246e-02  -3.0072075476767636e-02  -3.0248188223520874e-02  -3.0447463236113324e-02  -3.0635550867234445e-02  -3.0783545569640105e-02  -3.0876027378447288e-02  -3.0916331426827631e-02  -3.0927314041451909e-02  -3.0947068128855847e-02  -3.1019238775585652e-02  -3.1176418077990643e-02  -3.1416187040362281e-02  -3.1679456401850353e-02  -3.1859211287952258e-02  -3.1867956084565587e-02  -3.1733676865092146e-02  -3.1628804512311502e-02  -3.1796753723722149e-02  -3.2420017371883901e-02  -3.3433245314803961e-02  -3.4824373144559863e-02  -3.6746155811288178e-02  -3.9915450560686468e-02  -2.0937236356953905e-02  -3.1777649494069457e-02  -5.3148848227141797e-02  -4.4082448740859627e-02  -3.8939691263182641e-02  -3.5876970392319699e-02  -3.3842350817033864e-02  -3.2949447927553902e-02  -3.2811052439195625e-02  -3.2931907271594368e-02  -3.3027184984997821e-02  -3.2953626787668090e-02  -3.2706032077525621e-02  -3.2376282465143104e-02  -3.2067182159105125e-02  -3.1836703279287712e-02  -3.1689155914942584e-02  -3.1593127632576816e-02  -3.1505322730606154e-02  -3.1389493098253410e-02  -3.1227225015539182e-02  -3.1020867823787667e-02  -3.0790333549021554e-02  -3.0566201942220095e-02  -3.0381694835660101e-02  -3.0265520948820488e-02  -3.0236625350400677e-02  -3.0301058899217772e-02  -3.0450865718648260e-02  -3.0665029905501379e-02  -3.0912790460460964e-02  -3.1159577842223691e-02  -3.1375115293551324e-02  -3.1541972307418925e-02  -3.1661789069117978e-02  -3.1756423801003270e-02  -3.1862488157886004e-02  -3.2019006886747553e-02  -3.2248594761755282e-02  -3.2535087898162070e-02  -3.2809775813598167e-02  -3.2971066251290877e-02  -3.2953325665732655e-02  -3.2808054137771027e-02  -3.2739014856029328e-02  -3.3085109174920531e-02  -3.4147686105113970e-02  -3.6003627656996072e-02  -3.9049617443029240e-02  -4.4885923228939938e-02  -5.4352737280521556e-02  -2.9278590721101786e-02  -3.7745851472924100e-02  -6.4888776877471022e-02  -5.1460364121438729e-02  -4.2888016774626829e-02  -3.8410056440000943e-02  -3.5692528113789500e-02  -3.4129579350721195e-02  -3.3626930336553035e-02  -3.3633249671802201e-02  -3.3721975148802583e-02  -3.3698922573368130e-02  -3.3523194984707558e-02  -3.3258035381226729e-02  -3.2993710456440152e-02  -3.2787657746467441e-02  -3.2648200382054529e-02  -3.2547895768470524e-02  -3.2446135056652045e-02  -3.2308829407615987e-02  -3.2120261102760859e-02  -3.1886234175836484e-02  -3.1630160048377889e-02  -3.1385189872260320e-02  -3.1185664690441428e-02  -3.1060125369108418e-02  -3.1026686733388344e-02  -3.1090562724212113e-02  -3.1243281567036728e-02  -3.1463493505714681e-02  -3.1719810437279589e-02  -3.1976294139630497e-02  -3.2200572829258270e-02  -3.2373075863990977e-02  -3.2494266732094934e-02  -3.2586290839012703e-02  -3.2686805566997920e-02  -3.2835061211649280e-02  -3.3052254614266530e-02  -3.3320927533255010e-02  -3.3575319642459876e-02  -3.3723351269538612e-02  -3.3711387075724811e-02  -3.3602813930452578e-02  -3.3636934958266383e-02  -3.4248121399279477e-02  -3.5805438358854996e-02  -3.8430861531787826e-02  -4.3038528682106926e-02  -5.1827840696244860e-02  -6.5206403348382472e-02  -3.6610258671324371e-02  -3.6669445309712931e-02  -6.5693602398546075e-02  -5.2638015968111795e-02  -4.3900572820371041e-02  -3.9257476559231126e-02  -3.6580197294790451e-02  -3.4934011253254585e-02  -3.4251533274822714e-02  -3.4157580709622944e-02  -3.4211857703137311e-02  -3.4192363101304843e-02  -3.4046192834415900e-02  -3.3822672598249566e-02  -3.3601738764147744e-02  -3.3436703715839032e-02  -3.3335175367174931e-02  -3.3269508570867377e-02  -3.3198492445758981e-02  -3.3087503938245312e-02  -3.2920917499808119e-02  -3.2705170088593132e-02  -3.2464245529808193e-02  -3.2231254024786070e-02  -3.2039788055668400e-02  -3.1917309856932162e-02  -3.1881113903265521e-02  -3.1936336666598814e-02  -3.2075319563089642e-02  -3.2278127493644948e-02  -3.2514734562580819e-02  -3.2749780589424647e-02  -3.2950335585386237e-02  -3.3095538756925405e-02  -3.3184888991348666e-02  -3.3240872289837915e-02  -3.3302883749941142e-02  -3.3412624704709785e-02  -3.3594294497448149e-02  -3.3835303012191800e-02  -3.4077580375716905e-02  -3.4235781357208332e-02  -3.4253654944327958e-02  -3.4180482643202073e-02  -3.4238818830867740e-02  -3.4875206514246193e-02  -3.6534084454548844e-02  -3.9266123807289340e-02  -4.3790177501484631e-02  -5.2247591322808012e-02  -6.5238998427962672e-02  -3.7768210384094725e-02  -2.9347393540454635e-02  -5.5329068247735508e-02  -4.6719331892596541e-02  -4.1044662629347931e-02  -3.7909337666415521e-02  -3.5988515889768501e-02  -3.4833002127825106e-02  -3.4403558180992611e-02  -3.4418967418161320e-02  -3.4526014171596724e-02  -3.4536049145750390e-02  -3.4415638816824266e-02  -3.4221630020676984e-02  -3.4033235999331793e-02  -3.3901112142642603e-02  -3.3830780665333460e-02  -3.3793285296150409e-02  -3.3747048261927759e-02  -3.3658281682801335e-02  -3.3513019253190196e-02  -3.3319098434766076e-02  -3.3100557677933455e-02  -3.2888849218197333e-02  -3.2714721552222978e-02  -3.2602676070433684e-02  -3.2568027740294832e-02  -3.2615645767135382e-02  -3.2739465157448647e-02  -3.2922498138372544e-02  -3.3137931173224056e-02  -3.3352526409812386e-02  -3.3533379418162000e-02  -3.3657601474171885e-02  -3.3721923527015911e-02  -3.3747159066838173e-02  -3.3773176199568426e-02  -3.3844082917354253e-02  -3.3988093703140924e-02  -3.4198812708364668e-02  -3.4425523592624407e-02  -3.4583517302686717e-02  -3.4597258513182662e-02  -3.4472118270508181e-02  -3.4361762637444372e-02  -3.4626178854737975e-02  -3.5754988098885589e-02  -3.7905880467195723e-02  -4.0961418090956839e-02  -4.5947535585442803e-02  -5.4146106485873695e-02  -3.1871308168871425e-02  -2.0862024652049595e-02  -4.0722234734917394e-02  -3.8327599686440478e-02  -3.6666895409830272e-02  -3.5308744762093114e-02  -3.4403991618658099e-02  -3.3986328177824481e-02  -3.4033821676969951e-02  -3.4320005974544716e-02  -3.4583187996372826e-02  -3.4687742305272863e-02  -3.4632000895690837e-02  -3.4491737077897690e-02  -3.4352899505109939e-02  -3.4265829358679535e-02  -3.4233311995175264e-02  -3.4224029592083739e-02  -3.4196359280908126e-02  -3.4119453719629760e-02  -3.3984061532489875e-02  -3.3802144300607094e-02  -3.3599313158910737e-02  -3.3405544959473336e-02  -3.3248011947377698e-02  -3.3147208926255771e-02  -3.3115624827883328e-02  -3.3157528733083835e-02  -3.3268729493884840e-02  -3.3435961472745551e-02  -3.3636536185384515e-02  -3.3839802941589288e-02  -