<?xml version="1.0"?>
<VTKFile type="UnstructuredGrid"  version="0.1"  >
<UnstructuredGrid>
<Piece  NumberOfPoints="2601" NumberOfCells="5000">
<Points>
<DataArray  type="Float64"  NumberOfComponents="3"  format="ascii">0 0 0  0.03 0 0  0.06 0 0  0.09 0 0  0.12 0 0  0.15 0 0  0.18 0 0  0.21 0 0  0.24 0 0  0.27 0 0  0.3 0 0  0.33 0 0  0.36 0 0  0.39 0 0  0.42 0 0  0.45 0 0  0.48 0 0  0.51 0 0  0.54 0 0  0.57 0 0  0.6 0 0  0.63 0 0  0.66 0 0  0.6899999999999999 0 0  0.72 0 0  0.75 0 0  0.78 0 0  0.8100000000000001 0 0  0.84 0 0  0.87 0 0  0.9 0 0  0.93 0 0  0.96 0 0  0.99 0 0  1.02 0 0  1.05 0 0  1.08 0 0  1.11 0 0  1.14 0 0  1.17 0 0  1.2 0 0  1.23 0 0  1.26 0 0  1.29 0 0  1.32 0 0  1.35 0 0  1.38 0 0  1.41 0 0  1.44 0 0  1.47 0 0  1.5 0 0  0 0.02 0  0.03 0.02 0  0.06 0.02 0  0.09 0.02 0  0.12 0.02 0  0.15 0.02 0  0.18 0.02 0  0.21 0.02 0  0.24 0.02 0  0.27 0.02 0  0.3 0.02 0  0.33 0.02 0  0.36 0.02 0  0.39 0.02 0  0.42 0.02 0  0.45 0.02 0  0.48 0.02 0  0.51 0.02 0  0.54 0.02 0  0.57 0.02 0  0.6 0.02 0  0.63 0.02 0  0.66 0.02 0  0.6899999999999999 0.02 0  0.72 0.02 0  0.75 0.02 0  0.78 0.02 0  0.8100000000000001 0.02 0  0.84 0.02 0  0.87 0.02 0  0.9 0.02 0  0.93 0.02 0  0.96 0.02 0  0.99 0.02 0  1.02 0.02 0  1.05 0.02 0  1.08 0.02 0  1.11 0.02 0  1.14 0.02 0  1.17 0.02 0  1.2 0.02 0  1.23 0.02 0  1.26 0.02 0  1.29 0.02 0  1.32 0.02 0  1.35 0.02 0  1.38 0.02 0  1.41 0.02 0  1.44 0.02 0  1.47 0.02 0  1.5 0.02 0  0 0.04 0  0.03 0.04 0  0.06 0.04 0  0.09 0.04 0  0.12 0.04 0  0.15 0.04 0  0.18 0.04 0  0.21 0.04 0  0.24 0.04 0  0.27 0.04 0  0.3 0.04 0  0.33 0.04 0  0.36 0.04 0  0.39 0.04 0  0.42 0.04 0  0.45 0.04 0  0.48 0.04 0  0.51 0.04 0  0.54 0.04 0  0.57 0.04 0  0.6 0.04 0  0.63 0.04 0  0.66 0.04 0  0.6899999999999999 0.04 0  0.72 0.04 0  0.75 0.04 0  0.78 0.04 0  0.8100000000000001 0.04 0  0.84 0.04 0  0.87 0.04 0  0.9 0.04 0  0.93 0.04 0  0.96 0.04 0  0.99 0.04 0  1.02 0.04 0  1.05 0.04 0  1.08 0.04 0  1.11 0.04 0  1.14 0.04 0  1.17 0.04 0  1.2 0.04 0  1.23 0.04 0  1.26 0.04 0  1.29 0.04 0  1.32 0.04 0  1.35 0.04 0  1.38 0.04 0  1.41 0.04 0  1.44 0.04 0  1.47 0.04 0  1.5 0.04 0  0 0.06 0  0.03 0.06 0  0.06 0.06 0  0.09 0.06 0  0.12 0.06 0  0.15 0.06 0  0.18 0.06 0  0.21 0.06 0  0.24 0.06 0  0.27 0.06 0  0.3 0.06 0  0.33 0.06 0  0.36 0.06 0  0.39 0.06 0  0.42 0.06 0  0.45 0.06 0  0.48 0.06 0  0.51 0.06 0  0.54 0.06 0  0.57 0.06 0  0.6 0.06 0  0.63 0.06 0  0.66 0.06 0  0.6899999999999999 0.06 0  0.72 0.06 0  0.75 0.06 0  0.78 0.06 0  0.8100000000000001 0.06 0  0.84 0.06 0  0.87 0.06 0  0.9 0.06 0  0.93 0.06 0  0.96 0.06 0  0.99 0.06 0  1.02 0.06 0  1.05 0.06 0  1.08 0.06 0  1.11 0.06 0  1.14 0.06 0  1.17 0.06 0  1.2 0.06 0  1.23 0.06 0  1.26 0.06 0  1.29 0.06 0  1.32 0.06 0  1.35 0.06 0  1.38 0.06 0  1.41 0.06 0  1.44 0.06 0  1.47 0.06 0  1.5 0.06 0  0 0.08 0  0.03 0.08 0  0.06 0.08 0  0.09 0.08 0  0.12 0.08 0  0.15 0.08 0  0.18 0.08 0  0.21 0.08 0  0.24 0.08 0  0.27 0.08 0  0.3 0.08 0  0.33 0.08 0  0.36 0.08 0  0.39 0.08 0  0.42 0.08 0  0.45 0.08 0  0.48 0.08 0  0.51 0.08 0  0.54 0.08 0  0.57 0.08 0  0.6 0.08 0  0.63 0.08 0  0.66 0.08 0  0.6899999999999999 0.08 0  0.72 0.08 0  0.75 0.08 0  0.78 0.08 0  0.8100000000000001 0.08 0  0.84 0.08 0  0.87 0.08 0  0.9 0.08 0  0.93 0.08 0  0.96 0.08 0  0.99 0.08 0  1.02 0.08 0  1.05 0.08 0  1.08 0.08 0  1.11 0.08 0  1.14 0.08 0  1.17 0.08 0  1.2 0.08 0  1.23 0.08 0  1.26 0.08 0  1.29 0.08 0  1.32 0.08 0  1.35 0.08 0  1.38 0.08 0  1.41 0.08 0  1.44 0.08 0  1.47 0.08 0  1.5 0.08 0  0 0.1 0  0.03 0.1 0  0.06 0.1 0  0.09 0.1 0  0.12 0.1 0  0.15 0.1 0  0.18 0.1 0  0.21 0.1 0  0.24 0.1 0  0.27 0.1 0  0.3 0.1 0  0.33 0.1 0  0.36 0.1 0  0.39 0.1 0  0.42 0.1 0  0.45 0.1 0  0.48 0.1 0  0.51 0.1 0  0.54 0.1 0  0.57 0.1 0  0.6 0.1 0  0.63 0.1 0  0.66 0.1 0  0.6899999999999999 0.1 0  0.72 0.1 0  0.75 0.1 0  0.78 0.1 0  0.8100000000000001 0.1 0  0.84 0.1 0  0.87 0.1 0  0.9 0.1 0  0.93 0.1 0  0.96 0.1 0  0.99 0.1 0  1.02 0.1 0  1.05 0.1 0  1.08 0.1 0  1.11 0.1 0  1.14 0.1 0  1.17 0.1 0  1.2 0.1 0  1.23 0.1 0  1.26 0.1 0  1.29 0.1 0  1.32 0.1 0  1.35 0.1 0  1.38 0.1 0  1.41 0.1 0  1.44 0.1 0  1.47 0.1 0  1.5 0.1 0  0 0.12 0  0.03 0.12 0  0.06 0.12 0  0.09 0.12 0  0.12 0.12 0  0.15 0.12 0  0.18 0.12 0  0.21 0.12 0  0.24 0.12 0  0.27 0.12 0  0.3 0.12 0  0.33 0.12 0  0.36 0.12 0  0.39 0.12 0  0.42 0.12 0  0.45 0.12 0  0.48 0.12 0  0.51 0.12 0  0.54 0.12 0  0.57 0.12 0  0.6 0.12 0  0.63 0.12 0  0.66 0.12 0  0.6899999999999999 0.12 0  0.72 0.12 0  0.75 0.12 0  0.78 0.12 0  0.8100000000000001 0.12 0  0.84 0.12 0  0.87 0.12 0  0.9 0.12 0  0.93 0.12 0  0.96 0.12 0  0.99 0.12 0  1.02 0.12 0  1.05 0.12 0  1.08 0.12 0  1.11 0.12 0  1.14 0.12 0  1.17 0.12 0  1.2 0.12 0  1.23 0.12 0  1.26 0.12 0  1.29 0.12 0  1.32 0.12 0  1.35 0.12 0  1.38 0.12 0  1.41 0.12 0  1.44 0.12 0  1.47 0.12 0  1.5 0.12 0  0 0.14 0  0.03 0.14 0  0.06 0.14 0  0.09 0.14 0  0.12 0.14 0  0.15 0.14 0  0.18 0.14 0  0.21 0.14 0  0.24 0.14 0  0.27 0.14 0  0.3 0.14 0  0.33 0.14 0  0.36 0.14 0  0.39 0.14 0  0.42 0.14 0  0.45 0.14 0  0.48 0.14 0  0.51 0.14 0  0.54 0.14 0  0.57 0.14 0  0.6 0.14 0  0.63 0.14 0  0.66 0.14 0  0.6899999999999999 0.14 0  0.72 0.14 0  0.75 0.14 0  0.78 0.14 0  0.8100000000000001 0.14 0  0.84 0.14 0  0.87 0.14 0  0.9 0.14 0  0.93 0.14 0  0.96 0.14 0  0.99 0.14 0  1.02 0.14 0  1.05 0.14 0  1.08 0.14 0  1.11 0.14 0  1.14 0.14 0  1.17 0.14 0  1.2 0.14 0  1.23 0.14 0  1.26 0.14 0  1.29 0.14 0  1.32 0.14 0  1.35 0.14 0  1.38 0.14 0  1.41 0.14 0  1.44 0.14 0  1.47 0.14 0  1.5 0.14 0  0 0.16 0  0.03 0.16 0  0.06 0.16 0  0.09 0.16 0  0.12 0.16 0  0.15 0.16 0  0.18 0.16 0  0.21 0.16 0  0.24 0.16 0  0.27 0.16 0  0.3 0.16 0  0.33 0.16 0  0.36 0.16 0  0.39 0.16 0  0.42 0.16 0  0.45 0.16 0  0.48 0.16 0  0.51 0.16 0  0.54 0.16 0  0.57 0.16 0  0.6 0.16 0  0.63 0.16 0  0.66 0.16 0  0.6899999999999999 0.16 0  0.72 0.16 0  0.75 0.16 0  0.78 0.16 0  0.8100000000000001 0.16 0  0.84 0.16 0  0.87 0.16 0  0.9 0.16 0  0.93 0.16 0  0.96 0.16 0  0.99 0.16 0  1.02 0.16 0  1.05 0.16 0  1.08 0.16 0  1.11 0.16 0  1.14 0.16 0  1.17 0.16 0  1.2 0.16 0  1.23 0.16 0  1.26 0.16 0  1.29 0.16 0  1.32 0.16 0  1.35 0.16 0  1.38 0.16 0  1.41 0.16 0  1.44 0.16 0  1.47 0.16 0  1.5 0.16 0  0 0.18 0  0.03 0.18 0  0.06 0.18 0  0.09 0.18 0  0.12 0.18 0  0.15 0.18 0  0.18 0.18 0  0.21 0.18 0  0.24 0.18 0  0.27 0.18 0  0.3 0.18 0  0.33 0.18 0  0.36 0.18 0  0.39 0.18 0  0.42 0.18 0  0.45 0.18 0  0.48 0.18 0  0.51 0.18 0  0.54 0.18 0  0.57 0.18 0  0.6 0.18 0  0.63 0.18 0  0.66 0.18 0  0.6899999999999999 0.18 0  0.72 0.18 0  0.75 0.18 0  0.78 0.18 0  0.8100000000000001 0.18 0  0.84 0.18 0  0.87 0.18 0  0.9 0.18 0  0.93 0.18 0  0.96 0.18 0  0.99 0.18 0  1.02 0.18 0  1.05 0.18 0  1.08 0.18 0  1.11 0.18 0  1.14 0.18 0  1.17 0.18 0  1.2 0.18 0  1.23 0.18 0  1.26 0.18 0  1.29 0.18 0  1.32 0.18 0  1.35 0.18 0  1.38 0.18 0  1.41 0.18 0  1.44 0.18 0  1.47 0.18 0  1.5 0.18 0  0 0.2 0  0.03 0.2 0  0.06 0.2 0  0.09 0.2 0  0.12 0.2 0  0.15 0.2 0  0.18 0.2 0  0.21 0.2 0  0.24 0.2 0  0.27 0.2 0  0.3 0.2 0  0.33 0.2 0  0.36 0.2 0  0.39 0.2 0  0.42 0.2 0  0.45 0.2 0  0.48 0.2 0  0.51 0.2 0  0.54 0.2 0  0.57 0.2 0  0.6 0.2 0  0.63 0.2 0  0.66 0.2 0  0.6899999999999999 0.2 0  0.72 0.2 0  0.75 0.2 0  0.78 0.2 0  0.8100000000000001 0.2 0  0.84 0.2 0  0.87 0.2 0  0.9 0.2 0  0.93 0.2 0  0.96 0.2 0  0.99 0.2 0  1.02 0.2 0  1.05 0.2 0  1.08 0.2 0  1.11 0.2 0  1.14 0.2 0  1.17 0.2 0  1.2 0.2 0  1.23 0.2 0  1.26 0.2 0  1.29 0.2 0  1.32 0.2 0  1.35 0.2 0  1.38 0.2 0  1.41 0.2 0  1.44 0.2 0  1.47 0.2 0  1.5 0.2 0  0 0.22 0  0.03 0.22 0  0.06 0.22 0  0.09 0.22 0  0.12 0.22 0  0.15 0.22 0  0.18 0.22 0  0.21 0.22 0  0.24 0.22 0  0.27 0.22 0  0.3 0.22 0  0.33 0.22 0  0.36 0.22 0  0.39 0.22 0  0.42 0.22 0  0.45 0.22 0  0.48 0.22 0  0.51 0.22 0  0.54 0.22 0  0.57 0.22 0  0.6 0.22 0  0.63 0.22 0  0.66 0.22 0  0.6899999999999999 0.22 0  0.72 0.22 0  0.75 0.22 0  0.78 0.22 0  0.8100000000000001 0.22 0  0.84 0.22 0  0.87 0.22 0  0.9 0.22 0  0.93 0.22 0  0.96 0.22 0  0.99 0.22 0  1.02 0.22 0  1.05 0.22 0  1.08 0.22 0  1.11 0.22 0  1.14 0.22 0  1.17 0.22 0  1.2 0.22 0  1.23 0.22 0  1.26 0.22 0  1.29 0.22 0  1.32 0.22 0  1.35 0.22 0  1.38 0.22 0  1.41 0.22 0  1.44 0.22 0  1.47 0.22 0  1.5 0.22 0  0 0.24 0  0.03 0.24 0  0.06 0.24 0  0.09 0.24 0  0.12 0.24 0  0.15 0.24 0  0.18 0.24 0  0.21 0.24 0  0.24 0.24 0  0.27 0.24 0  0.3 0.24 0  0.33 0.24 0  0.36 0.24 0  0.39 0.24 0  0.42 0.24 0  0.45 0.24 0  0.48 0.24 0  0.51 0.24 0  0.54 0.24 0  0.57 0.24 0  0.6 0.24 0  0.63 0.24 0  0.66 0.24 0  0.6899999999999999 0.24 0  0.72 0.24 0  0.75 0.24 0  0.78 0.24 0  0.8100000000000001 0.24 0  0.84 0.24 0  0.87 0.24 0  0.9 0.24 0  0.93 0.24 0  0.96 0.24 0  0.99 0.24 0  1.02 0.24 0  1.05 0.24 0  1.08 0.24 0  1.11 0.24 0  1.14 0.24 0  1.17 0.24 0  1.2 0.24 0  1.23 0.24 0  1.26 0.24 0  1.29 0.24 0  1.32 0.24 0  1.35 0.24 0  1.38 0.24 0  1.41 0.24 0  1.44 0.24 0  1.47 0.24 0  1.5 0.24 0  0 0.26 0  0.03 0.26 0  0.06 0.26 0  0.09 0.26 0  0.12 0.26 0  0.15 0.26 0  0.18 0.26 0  0.21 0.26 0  0.24 0.26 0  0.27 0.26 0  0.3 0.26 0  0.33 0.26 0  0.36 0.26 0  0.39 0.26 0  0.42 0.26 0  0.45 0.26 0  0.48 0.26 0  0.51 0.26 0  0.54 0.26 0  0.57 0.26 0  0.6 0.26 0  0.63 0.26 0  0.66 0.26 0  0.6899999999999999 0.26 0  0.72 0.26 0  0.75 0.26 0  0.78 0.26 0  0.8100000000000001 0.26 0  0.84 0.26 0  0.87 0.26 0  0.9 0.26 0  0.93 0.26 0  0.96 0.26 0  0.99 0.26 0  1.02 0.26 0  1.05 0.26 0  1.08 0.26 0  1.11 0.26 0  1.14 0.26 0  1.17 0.26 0  1.2 0.26 0  1.23 0.26 0  1.26 0.26 0  1.29 0.26 0  1.32 0.26 0  1.35 0.26 0  1.38 0.26 0  1.41 0.26 0  1.44 0.26 0  1.47 0.26 0  1.5 0.26 0  0 0.28 0  0.03 0.28 0  0.06 0.28 0  0.09 0.28 0  0.12 0.28 0  0.15 0.28 0  0.18 0.28 0  0.21 0.28 0  0.24 0.28 0  0.27 0.28 0  0.3 0.28 0  0.33 0.28 0  0.36 0.28 0  0.39 0.28 0  0.42 0.28 0  0.45 0.28 0  0.48 0.28 0  0.51 0.28 0  0.54 0.28 0  0.57 0.28 0  0.6 0.28 0  0.63 0.28 0  0.66 0.28 0  0.6899999999999999 0.28 0  0.72 0.28 0  0.75 0.28 0  0.78 0.28 0  0.8100000000000001 0.28 0  0.84 0.28 0  0.87 0.28 0  0.9 0.28 0  0.93 0.28 0  0.96 0.28 0  0.99 0.28 0  1.02 0.28
[...]
<PointData  Scalars="sensitivity"> 
<DataArray  type="Float64"  Name="sensitivity"  format="ascii">-9.3311711649428491e-08  -3.5251222806961894e-06  -2.5100220932822720e-05  -7.8555671868050733e-05  -1.5797073485886737e-04  -2.4463563454928019e-04  -3.2190067894238264e-04  -3.8188990790521043e-04  -4.2408561782012664e-04  -4.5159194778418999e-04  -4.6835685509917610e-04  -4.7784989577620698e-04  -4.8268637959493076e-04  -4.8467960792973597e-04  -4.8502298003453388e-04  -4.8447356238241740e-04  -4.8349726944045020e-04  -4.8237230376746063e-04  -4.8125891103754811e-04  -4.8024493743440029e-04  -4.7937498876950011e-04  -4.7866882959236531e-04  -4.7813285128715300e-04  -4.7776711836853951e-04  -4.7756959541571826e-04  -4.7753854761700546e-04  -4.7767369431104151e-04  -4.7797639921391097e-04  -4.7844894394958860e-04  -4.7909270405049079e-04  -4.7990478164898319e-04  -4.8087229270618809e-04  -4.8196298949959880e-04  -4.8311013001300495e-04  -4.8418837225472865e-04  -4.8497586951464590e-04  -4.8509569127361404e-04  -4.8392762065683847e-04  -4.8048104881129869e-04  -4.7322555035226964e-04  -4.5989911642241587e-04  -4.3737709065982613e-04  -4.0181438607262722e-04  -3.4949428224662890e-04  -2.7895605228066197e-04  -1.9453219619204606e-04  -1.0944320827624697e-04  -4.3161481164235438e-05  -8.9685282670385636e-06  -4.9166976467506059e-07  -9.2041362794435233e-10  -2.0061715490599441e-06  -4.5353982245870135e-05  -2.6125603468548085e-04  -7.8317866904275646e-04  -1.5808450188995501e-03  -2.4820336973363755e-03  -3.3108175076020552e-03  -3.9711983269357853e-03  -4.4457838599310960e-03  -4.7609316147215197e-03  -4.9564304554525589e-03  -5.0693796838177816e-03  -5.1286661900404647e-03  -5.1547399219719538e-03  -5.1612579060017075e-03  -5.1569810039316507e-03  -5.1473521211701928e-03  -5.1356514791090126e-03  -5.1237886343603921e-03  -5.1128253762188682e-03  -5.1033129246223210e-03  -5.0955058822412117e-03  -5.0894962065320005e-03  -5.0852959178063076e-03  -5.0828870571932193e-03  -5.0822504802714224e-03  -5.0833803623618482e-03  -5.0862879537673508e-03  -5.0909955064354076e-03  -5.0975188659696403e-03  -5.1058344865156377e-03  -5.1158230295835815e-03  -5.1271765616864116e-03  -5.1392487773458265e-03  -5.1508165621284921e-03  -5.1597056055307190e-03  -5.1622128500339618e-03  -5.1522385973507313e-03  -5.1200371572349456e-03  -5.0505487388957868e-03  -4.9214916953925578e-03  -4.7019585675893887e-03  -4.3534595697333938e-03  -3.8373298490480749e-03  -3.1338011989721719e-03  -2.2750148256434478e-03  -1.3771567651548050e-03  -6.2705363824099220e-04  -1.7903573317124192e-04  -2.1329046756142403e-05  -2.9714732740535834e-07  -1.2874396370840137e-05  -1.9455273462757144e-04  -8.5950982131150692e-04  -2.2452557740954729e-03  -4.2518748228831090e-03  -6.4821225392831094e-03  -8.5299254883061896e-03  -1.0168661468422395e-02  -1.1353806724636296e-02  -1.2145990376215202e-02  -1.2640414208509157e-02  -1.2927624692401409e-02  -1.3079145806250955e-02  -1.3146175186618644e-02  -1.3163199440961773e-02  -1.3152489884183377e-02  -1.3127955439856499e-02  -1.3098012998524393e-02  -1.3067578786817538e-02  -1.3039394259853596e-02  -1.3014886397548098e-02  -1.2994716040008606e-02  -1.2979122421206555e-02  -1.2968136475604186e-02  -1.2961710085665932e-02  -1.2959790991689719e-02  -1.2962361151820825e-02  -1.2969447876467631e-02  -1.2981110464399467e-02  -1.2997399022915758e-02  -1.3018275439046781e-02  -1.3043477751783579e-02  -1.3072296820529447e-02  -1.3103216116450428e-02  -1.3133339232257339e-02  -1.3157493239653661e-02  -1.3166850068193400e-02  -1.3146863288277348e-02  -1.3074310547486780e-02  -1.2913359461594649e-02  -1.2611064866026037e-02  -1.2093948398140968e-02  -1.1269987449609236e-02  -1.0044439862186264e-02  -8.3612687922409897e-03  -6.2763164509264408e-03  -4.0326006262663893e-03  -2.0501274658168275e-03  -7.2418579412662461e-04  -1.3179786142458651e-04  -4.5078815541681346e-06  -4.6129831998803130e-05  -5.6695200897602805e-04  -2.0174384970840487e-03  -4.4879858462627984e-03  -7.6823295176956371e-03  -1.1031382281302734e-02  -1.4018341124468378e-02  -1.6374907702246731e-02  -1.8067014671714562e-02  -1.9192732427010594e-02  -1.9891438326468093e-02  -2.0293335021144773e-02  -2.0500972222747063e-02  -2.0587857691053313e-02  -2.0603619101598976e-02  -2.0580361387762307e-02  -2.0538142185585050e-02  -2.0489078529409531e-02  -2.0440214029720721e-02  -2.0395438062220904e-02  -2.0356736182136806e-02  -2.0324989478272236e-02  -2.0300477775004815e-02  -2.0283191486088353e-02  -2.0273020681203489e-02  -2.0269864801981147e-02  -2.0273689163454782e-02  -2.0284542059927330e-02  -2.0302536692981828e-02  -2.0327793377942216e-02  -2.0360327819439385e-02  -2.0399858793872030e-02  -2.0445491054250767e-02  -2.0495203827685819e-02  -2.0545038618571335e-02  -2.0587829487768862e-02  -2.0611255876593754e-02  -2.0594937104975848e-02  -2.0506276959773903e-02  -2.0294935685726431e-02  -1.9886433245706079e-02  -1.9176979127507661e-02  -1.8035003769857529e-02  -1.6319725102485808e-02  -1.3932258163214290e-02  -1.0907145854792700e-02  -7.5147914835556944e-03  -4.2857017856481622e-03  -1.8161825433872553e-03  -4.3516587743951693e-04  -2.2756063423057774e-05  -1.2049142100269796e-04  -1.3615363016954813e-03  -4.1670838049074560e-03  -7.9750763349255606e-03  -1.2147039037059019e-02  -1.6110363065103165e-02  -1.9458719113441169e-02  -2.2021042654193270e-02  -2.3825034824353230e-02  -2.5005050450603861e-02  -2.5722405014046396e-02  -2.6121341354390516e-02  -2.6313707340437580e-02  -2.6379166883559641e-02  -2.6371313935240257e-02  -2.6324690460703026e-02  -2.6260749210593647e-02  -2.6192318501010729e-02  -2.6126724943888551e-02  -2.6067888856955615e-02  -2.6017692236166557e-02  -2.5976854138816518e-02  -2.5945481609199555e-02  -2.5923410595302749e-02  -2.5910412138643469e-02  -2.5906311760502742e-02  -2.5911051009694406e-02  -2.5924706581143167e-02  -2.5947471830596664e-02  -2.5979595871197025e-02  -2.6021264855410085e-02  -2.6072396494870413e-02  -2.6132299924434839e-02  -2.6199125680132662e-02  -2.6268991421358637e-02  -2.6334615347217361e-02  -2.6383222365651795e-02  -2.6393422363181193e-02  -2.6330742066339289e-02  -2.6141645917513296e-02  -2.5746454135285649e-02  -2.5033059492593619e-02  -2.3856308113622667e-02  -2.2052190722469854e-02  -1.9480855763482425e-02  -1.6101858731619179e-02  -1.2069605400804678e-02  -7.7849146250053560e-03  -3.8627254345456842e-03  -1.0995356800394213e-03  -7.0189909519829298e-05  -2.7128172122742111e-04  -2.9654013299362479e-03  -8.1429250140718657e-03  -1.3570399936164520e-02  -1.8272007305594504e-02  -2.2110555363576000e-02  -2.5093085231731860e-02  -2.7268494247022605e-02  -2.8747333181175901e-02  -2.9679450585661168e-02  -3.0216123740308257e-02  -3.0485670504521580e-02  -3.0585538857525862e-02  -3.0584384740023132e-02  -3.0527983546455997e-02  -3.0445504603440539e-02  -3.0354750040472441e-02  -3.0266063883264336e-02  -3.0185067479342492e-02  -3.0114497005519780e-02  -3.0055403228926844e-02  -3.0007917974724640e-02  -2.9971734609313353e-02  -2.9946403487236675e-02  -2.9931509171532259e-02  -2.9926772183507779e-02  -2.9932101248948653e-02  -2.9947609940291949e-02  -2.9973602171602894e-02  -3.0010522416164743e-02  -3.0058857135483463e-02  -3.0118961974128510e-02  -3.0190772709491626e-02  -3.0273334227781695e-02  -3.0364048104900152e-02  -3.0457493499841604e-02  -3.0543619112051008e-02  -3.0605047286037260e-02  -3.0613211206028050e-02  -3.0523154083797698e-02  -3.0267230635877867e-02  -2.9749020419030686e-02  -2.8840579685862486e-02  -2.7388851485188468e-02  -2.5236914224896333e-02  -2.2252393945242335e-02  -1.8349534158127481e-02  -1.3439899611419476e-02  -7.6813107837743399e-03  -2.4395569512972600e-03  -1.6926793184138733e-04  -5.9805107376171022e-04  -6.3333319352432945e-03  -1.5645340140519413e-02  -2.2630863658331342e-02  -2.6830013121802967e-02  -2.9441427909900484e-02  -3.1188891804058594e-02  -3.2359573197583043e-02  -3.3095050312292151e-02  -3.3504634822806897e-02  -3.3684747202162656e-02  -3.3715075408088664e-02  -3.3655824435503391e-02  -3.3549135378980466e-02  -3.3422664563595113e-02  -3.3293487909530843e-02  -3.3171439810207308e-02  -3.3061647118779423e-02  -3.2966321455478780e-02  -3.2885969161125482e-02  -3.2820180595906134e-02  -3.2768130752236321e-02  -3.2728888662450099e-02  -3.2701603610607852e-02  -3.2685613760178249e-02  -3.2680506680308585e-02  -3.2686149822769760e-02  -3.2702700706436175e-02  -3.2730600051472714e-02  -3.2770545196274932e-02  -3.2823434723863572e-02  -3.2890267162704212e-02  -3.2971965590510639e-02  -3.3069084439790161e-02  -3.3181333248075692e-02  -3.3306823686832611e-02  -3.3440912714855206e-02  -3.3574485302192772e-02  -3.3691519862650947e-02  -3.3765866465283623e-02  -3.3757442922151638e-02  -3.3608663326070536e-02  -3.3242621143029873e-02  -3.2564898926235604e-02  -3.1463132857515258e-02  -2.9778925693756998e-02  -2.7168234522554326e-02  -2.2728962605538850e-02  -1.5128542316621446e-02  -5.3042365272894286e-03  -3.6964289652310092e-04  -1.5459732782156239e-03  -1.4648714975395400e-02  -3.0114489750432096e-02  -3.7059538751155710e-02  -3.8535587008869221e-02  -3.8328586988111854e-02  -3.7847029707195771e-02  -3.7413957143974878e-02  -3.7045442357877385e-02  -3.6714141837139586e-02  -3.6405382136752443e-02  -3.6116962855834399e-02  -3.5851724405034854e-02  -3.5612853746500001e-02  -3.5402089133369390e-02  -3.5219493764899489e-02  -3.5063833467960964e-02  -3.4933075178310791e-02  -3.4824816618605564e-02  -3.4736599327639027e-02  -3.4666113872750849e-02  -3.4611322792712847e-02  -3.4570527245546538e-02  -3.4542398446773585e-02  -3.4525989303180814e-02  -3.4520736737336688e-02  -3.4526461366628167e-02  -3.4543368279531535e-02  -3.4572050321319728e-02  -3.4613493212427675e-02  -3.4669079630442114e-02  -3.4740586765744381e-02  -3.4830168540989179e-02  -3.4940309572946658e-02  -3.5073733463494870e-02  -3.5233244785413675e-02  -3.5421486760151076e-02  -3.5640616071658714e-02  -3.5891955062259152e-02  -3.6175825885147471e-02  -3.6492060489589577e-02  -3.6842156822532543e-02  -3.7234354963007837e-02  -3.7691526048629936e-02  -3.8249426688040107e-02  -3.8898638351746874e-02  -3.9273463967662112e-02  -3.7761400516457856e-02  -2.9945270192873744e-02  -1.2202905685206773e-02  -8.0819113994033990e-04  -7.9340669427743465e-03  -3.7624026914848556e-02  -5.7798438057084067e-02  -5.8744871952781413e-02  -5.3662639586094331e-02  -4.8633312767007823e-02  -4.4919416905620624e-02  -4.2378410926298689e-02  -4.0644979485034129e-02  -3.9433721154237523e-02  -3.8560339258876836e-02  -3.7911712388510994e-02  -3.7418278453561132e-02  -3.7036082450145134e-02  -3.6736278318869227e-02  -3.6499162336859604e-02  -3.6310771844992484e-02  -3.6160906867156659e-02  -3.6041944363840360e-02  -3.5948102310950650e-02  -3.5874966270098729e-02  -3.5819174722388394e-02  -3.5778204697003185e-02  -3.5750224099821537e-02  -3.5733991120046119e-02  -3.5728789199138106e-02  -3.5734390995174697e-02  -3.5751048066112519e-02  -3.5779505507745210e-02  -3.5821043110445483e-02  -3.5877547261224566e-02  -3.5951621436582329e-02  -3.6046748647700272e-02  -3.6167528216295299e-02  -3.6320024657283304e-02  -3.6512293494220416e-02  -3.6755197530518507e-02  -3.7063715969552026e-02  -3.7459112917544043e-02  -3.7972636123924701e-02  -3.8651953221466161e-02  -3.9572439069837574e-02  -4.0856467232880826e-02  -4.2703564612703360e-02  -4.5424165310617298e-02  -4.9425000889713473e-02  -5.4892754153407178e-02  -6.0535210886472374e-02  -5.9451758808195497e-02  -3.5820357173277334e-02  -3.3826307890188704e-03  -4.9685645403161380e-02  -1.0103660778259260e-01  -1.0473505841219258e-01  -8.7940388410644152e-02  -7.1490759450880709e-02  -5.9693429274126054e-02  -5.1984058018369063e-02  -4.7036308135223991e-02  -4.3824191199280577e-02  -4.1693200718586024e-02  -4.0244528293558506e-02  -3.9236164866188764e-02  -3.8518966259402473e-02  -3.7998994737122163e-02  -3.7615708268196088e-02  -3.7329210293134941e-02  -3.7112658521830433e-02  -3.6947648321334799e-02  -3.6821347035008334e-02  -3.6724681613645838e-02  -3.6651173356666969e-02  -3.6596178365215538e-02  -3.6556387695078435e-02  -3.6529497712214039e-02  -3.6513995429660315e-02  -3.6509024965680939e-02  -3.6514315105247767e-02  -3.6530157526615745e-02  -3.6557432676473010e-02  -3.6597687081163947e-02  -3.6653273447162946e-02  -3.6727574800312086e-02  -3.6825348310052644e-02  -3.6953246717420736e-02  -3.7120611042910319e-02  -3.7340687187314828e-02  -3.7632518599433847e-02  -3.8023939024916784e-02  -3.8556395033937901e-02  -3.9292880442891587e-02  -4.0331279966681899e-02  -4.1827294822701526e-02  -4.4034200996630253e-02  -4.7371245337098085e-02  -5.2532391609387434e-02  -6.0618083196031076e-02  -7.3097197056031515e-02  -9.0825652005347937e-02  -1.0929305750418626e-01  -1.0897384688171290e-01  -3.0002651538645696e-02  -1.3396480442493819e-01  -2.1360882260745442e-01  -1.6664657692673709e-01  -1.2119910103086716e-01  -8.9863295925105821e-02  -7.0298684987239374e-02  -5.8387272392674987e-02  -5.1053196596224606e-02  -4.6436190625213938e-02  -4.3457745584470173e-02  -4.1491326746412212e-02  -4.0165747466037356e-02  -3.9255294048504190e-02  -3.8619278664757464e-02  -3.8168058718092410e-02  -3.7843423960103519e-02  -3.7606951074942989e-02  -3.7432910489527418e-02  -3.7303853026651838e-02  -3.7207816056698421e-02  -3.7136530500261417e-02  -3.7084258254221944e-02  -3.7047033709145694e-02  -3.7022169127899074e-02  -3.7007936485032721e-02  -3.7003371704569812e-02  -3.7008169086250042e-02  -3.7022648962909681e-02  -3.7047793492847779e-02  -3.7085356342471565e-02  -3.7138063996524515e-02  -3.7209941952471799e-02  -3.7306821379267344e-02  -3.7437115946964653e-02  -3.7613012677525627e-02  -3.7852309028827892e-02  -3.8181276547803719e-02  -3.8639187065128144e-02  -3.9285594730598623e-02  -4.0212307673351141e-02  -4.1563601643400859e-02  -4.3571357113288148e-02  -4.6617889949840091e-02  -5.1350973913082985e-02  -5.8892030500526965e-02  -7.1192521940320552e-02  -9.1493152294650007e-02  -1.2428067117658884e-01  -1.7195709358714964e-01  -2.2689505319950815e-01  -1.0750454744096795e-01  -2.1101271118067516e-01  -3.2499294886604307e-01  -2.2462834153361286e-01  -1.5102474433936153e-01  -1.0547791072633445e-01  -7.8899787663811866e-02  -6.3364629437714412e-02  -5.4051634584753649e-02  -4.8305567701508852e-02  -4.4663096712173139e-02  -4.2300444139716988e-02  -4.0738153992838345e-02  -3.9687995393630590e-02  -3.8971803715956883e-02  -3.8476898075842508e-02  -3.8130700749247855e-02  -3.7885772677204298e-02  -3.7710729770473621e-02  -3.7584598398115544e-02  -3.7493244248507918e-02  -3.7427082534435045e-02  -3.7379596055330512e-02  -3.7346371385183957e-02  -3.7324473061058981e-02  -3.7312043027284587e-02  -3.7308055288588729e-02  -3.7312183858873367e-02  -3.7324761823728077e-02  -3.7346824722508790e-02  -3.7380245525621088e-02  -3.7427983954389239e-02  -3.7494492807061290e-02  -3.7586352414561472e-02  -3.7713247596482112e-02  -3.7889469795222230e-02  -3.8136238310464345e-02  -3.8485321260311026e-02  -3.8984761339545586e-02  -3.9708096968409254e-02  -4.0769568106672531e-02  -4.2349960460591439e-02  -4.4742050635054709e-02  -4.8433727767344920e-02  -5.4265240449743346e-02  -6.3732249837552574e-02  -7.9566542730212297e-02  -1.0670499949030771e-01  -1.5329578023645554e-01  -2.2848346216420365e-01  -3.3437725072226171e-01  -1.9223326457405751e-01  -2.5126896818431449e-01  -3.9107100016188828e-01  -2.5997784885150077e-01  -1.6944547585798450e-01  -1.1499479670069584e-01  -8.4016555190399522e-02  -6.6225380512080281e-02  -5.5702336433856303e-02  -4.9279212020027434e-02  -4.5248480364301791e-02  -4.2662245042276864e-02  -4.0973334009525998e-02  -3.9854683158681778e-02  -3.9104925681906377e-02  -3.8597166238240381e-02  -3.8250006469715297e-02  -3.8010521798795840e-02  -3.7843942152547431e-02  -3.7727238721772485e-02  -3.7645063459249103e-02  -3.7587143673677111e-02  -3.7546595563454195e-02  -3.7518828118121607e-02  -3.7500832491948605e-02  -3.7490728110574828e-02  -3.7487485208619914e-02  -3.7490775563236836e-02  -3.7500925787041693e-02  -3.7518965225498607e-02  -3.7546776673925114e-02  -3.7587375849470146e-02  -3.7645368234064669e-02  -3.7727664112344468e-02  -3.7844581293694543e-02  -3.8011541539611449e-02  -3.8251691051453270e-02  -3.8599984135789862e-02  -3.9109633120127135e-02  -3.9862487847476556e-02  -4.0986162254384950e-02  -4.2683205530842684e-02  -4.5282671705743363e-02  -4.9335334994370691e-02  -5.5795922970529870e-02  -6.6384264191466077e-02  -8.4298236481003472e-02  -1.1549248089516972e-01  -1.7030235575800456e-01  -2.6129879335208928e-01  -3.9421794225580198e-01  -2.4468827346113092e-01  -2.4481886325012148e-01  -3.9525466230060119e-01  -2.6278718238501003e-01  -1.7152361782096950e-01  -1.1626342499948593e-01  -8.4701177898256527e-02  -6.6542850235511861e-02  -5.5808809685094891e-02  -4.9270126824050922e-02  -4.5183038889593991e-02  -4.2576395501532291e-02  -4.0888460972475962e-02  -3.9782940165777575e-02  -3.9052546185080479e-02  -3.8566624656007249e-02  -3.8241442016420400e-02  -3.8022686232217710e-02  -3.7874825276031553e-02  -3.7774471695264641e-02  -3.7706168309433553e-02  -3.7659677036465007e-02  -3.7628220771315217e-02  -3.7607339706614500e-02  -3.7594149878376615e-02  -3.7586869909910774e-02  -3.7584531948418737e-02  -3.7586826115691120e-02  -3.7594051422105181e-02  -3.7607164658741338e-02  -3.7627935773529991e-02  -3.7659236793615269e-02  -3.7705514957926872e-02  -3.7773533993880080e-02  -3.7873517374647059e-02  -3.8020905347132899e-02  -3.8239063450421426e-02  -3.8563490839125122e-02  -3.9048442750283241e-02  -3.9777544863681742e-02  -4.0881236162601912e-02  -4.2566351768983185e-02  -4.5168246310442840e-02  -4.9246523561786312e-02  -5.5767385707383141e-02  -6.6463868618729757e-02  -8.4533986753804483e-02  -1.1590749001428559e-01  -1.7078601473913260e-01  -2.6145406367587160e-01  -3.9188875716960780e-01  -2.5133942928751224e-01  -1.9262480902542822e-01  -3.3730782694513156e-01  -2.3280228853060869e-01  -1.5693019000425731e-01  -1.0907043597978054e-01  -8.0850440869278700e-02  -6.4277776892127256e-02  -5.4361768688016690e-02  -4.8285184563874803e-02  -4.4482469551067660e-02  -4.2063826720898728e-02  -4.0507763132520115e-02  -3.9499102853440285e-02  -3.8842334941184643e-02  -3.8413746698786125e-02  -3.8133921067625871e-02  -3.7951376306568259e-02  -3.7832529922345211e-02  -3.7755395678108546e-02  -3.7705556627317005e-02  -3.7673562533499398e-02  -3.7653236695867058e-02  -3.7640572390946703e-02  -3.7633016879580802e-02  -3.7629014437898275e-02  -3.7627727338230818e-02  -3.7628885613390221e-02  -3.7632739235840013e-02  -3.7640104354122586e-02  -3.7652511732419409e-02  -3.7672483497033234e-02  -3.7703986967800397e-02  -3.7753146024797193e-02  -3.7829337497678743e-02  -3.7946872792368490e-02  -3.8127581246469699e-02  -3.8404804169257040e-02  -3.8829639588410722e-02  -3.9480871847570070e-02  -4.0481131851211369e-02  -4.2023989142524656e-02  -4.4421017397466046e-02  -4.8186520700336417e-02  -5.4195259814684107e-02  -6.3981502985069147e-02  -8.0284365204126254e-02  -1.0796858175582792e-01  -1.5478110728504116e-01  -2.2898605310282694e-01  -3.2772853952567582e-01  -2.1129706165531587e-01  -1.0822382016770293e-01  -2.3162334527081221e-01  -1.7864887391109929e-01  -1.2987700634341526e-01  -9.5180986134685869e-02  -7.3233770799808667e-02  -5.9790566714898664e-02  -5.1547270083368332e-02  -4.6430804827407829e-02  -4.3214108513359550e-02  -4.1171746493418933e-02  -3.9867556896363121e-02  -3.9033330600557616e-02  -3.8500809708798218e-02  -3.8162786329903303e-02  -3.7950214907833991e-02  -3.7818341099707067e-02  -3.7738068050573413e-02  -3.7690472680149668e-02  -3.7663271556968685e-02  -3.7648522364044167e-02  -3.7641122188342806e-02  -3.7637826415879094e-02  -3.7636611644380064e-02  -3.7636269162453627e-02  -3.7636156868832385e-02  -3.7636065614284731e-02  -3.7636176230263593e-02  -3.7637099636079765e-02  -3.7640007218080605e-02  -3.7646874715531159e-02  -