<?xml version="1.0"?>
<VTKFile type="UnstructuredGrid"  version="0.1"  >
<UnstructuredGrid>
<Piece  NumberOfPoints="2601" NumberOfCells="5000">
<Points>
<DataArray  type="Float64"  NumberOfComponents="3"  format="ascii">0 0 0  0.03 0 0  0.06 0 0  0.09 0 0  0.12 0 0  0.15 0 0  0.18 0 0  0.21 0 0  0.24 0 0  0.27 0 0  0.3 0 0  0.33 0 0  0.36 0 0  0.39 0 0  0.42 0 0  0.45 0 0  0.48 0 0  0.51 0 0  0.54 0 0  0.57 0 0  0.6 0 0  0.63 0 0  0.66 0 0  0.6899999999999999 0 0  0.72 0 0  0.75 0 0  0.78 0 0  0.8100000000000001 0 0  0.84 0 0  0.87 0 0  0.9 0 0  0.93 0 0  0.96 0 0  0.99 0 0  1.02 0 0  1.05 0 0  1.08 0 0  1.11 0 0  1.14 0 0  1.17 0 0  1.2 0 0  1.23 0 0  1.26 0 0  1.29 0 0  1.32 0 0  1.35 0 0  1.38 0 0  1.41 0 0  1.44 0 0  1.47 0 0  1.5 0 0  0 0.02 0  0.03 0.02 0  0.06 0.02 0  0.09 0.02 0  0.12 0.02 0  0.15 0.02 0  0.18 0.02 0  0.21 0.02 0  0.24 0.02 0  0.27 0.02 0  0.3 0.02 0  0.33 0.02 0  0.36 0.02 0  0.39 0.02 0  0.42 0.02 0  0.45 0.02 0  0.48 0.02 0  0.51 0.02 0  0.54 0.02 0  0.57 0.02 0  0.6 0.02 0  0.63 0.02 0  0.66 0.02 0  0.6899999999999999 0.02 0  0.72 0.02 0  0.75 0.02 0  0.78 0.02 0  0.8100000000000001 0.02 0  0.84 0.02 0  0.87 0.02 0  0.9 0.02 0  0.93 0.02 0  0.96 0.02 0  0.99 0.02 0  1.02 0.02 0  1.05 0.02 0  1.08 0.02 0  1.11 0.02 0  1.14 0.02 0  1.17 0.02 0  1.2 0.02 0  1.23 0.02 0  1.26 0.02 0  1.29 0.02 0  1.32 0.02 0  1.35 0.02 0  1.38 0.02 0  1.41 0.02 0  1.44 0.02 0  1.47 0.02 0  1.5 0.02 0  0 0.04 0  0.03 0.04 0  0.06 0.04 0  0.09 0.04 0  0.12 0.04 0  0.15 0.04 0  0.18 0.04 0  0.21 0.04 0  0.24 0.04 0  0.27 0.04 0  0.3 0.04 0  0.33 0.04 0  0.36 0.04 0  0.39 0.04 0  0.42 0.04 0  0.45 0.04 0  0.48 0.04 0  0.51 0.04 0  0.54 0.04 0  0.57 0.04 0  0.6 0.04 0  0.63 0.04 0  0.66 0.04 0  0.6899999999999999 0.04 0  0.72 0.04 0  0.75 0.04 0  0.78 0.04 0  0.8100000000000001 0.04 0  0.84 0.04 0  0.87 0.04 0  0.9 0.04 0  0.93 0.04 0  0.96 0.04 0  0.99 0.04 0  1.02 0.04 0  1.05 0.04 0  1.08 0.04 0  1.11 0.04 0  1.14 0.04 0  1.17 0.04 0  1.2 0.04 0  1.23 0.04 0  1.26 0.04 0  1.29 0.04 0  1.32 0.04 0  1.35 0.04 0  1.38 0.04 0  1.41 0.04 0  1.44 0.04 0  1.47 0.04 0  1.5 0.04 0  0 0.06 0  0.03 0.06 0  0.06 0.06 0  0.09 0.06 0  0.12 0.06 0  0.15 0.06 0  0.18 0.06 0  0.21 0.06 0  0.24 0.06 0  0.27 0.06 0  0.3 0.06 0  0.33 0.06 0  0.36 0.06 0  0.39 0.06 0  0.42 0.06 0  0.45 0.06 0  0.48 0.06 0  0.51 0.06 0  0.54 0.06 0  0.57 0.06 0  0.6 0.06 0  0.63 0.06 0  0.66 0.06 0  0.6899999999999999 0.06 0  0.72 0.06 0  0.75 0.06 0  0.78 0.06 0  0.8100000000000001 0.06 0  0.84 0.06 0  0.87 0.06 0  0.9 0.06 0  0.93 0.06 0  0.96 0.06 0  0.99 0.06 0  1.02 0.06 0  1.05 0.06 0  1.08 0.06 0  1.11 0.06 0  1.14 0.06 0  1.17 0.06 0  1.2 0.06 0  1.23 0.06 0  1.26 0.06 0  1.29 0.06 0  1.32 0.06 0  1.35 0.06 0  1.38 0.06 0  1.41 0.06 0  1.44 0.06 0  1.47 0.06 0  1.5 0.06 0  0 0.08 0  0.03 0.08 0  0.06 0.08 0  0.09 0.08 0  0.12 0.08 0  0.15 0.08 0  0.18 0.08 0  0.21 0.08 0  0.24 0.08 0  0.27 0.08 0  0.3 0.08 0  0.33 0.08 0  0.36 0.08 0  0.39 0.08 0  0.42 0.08 0  0.45 0.08 0  0.48 0.08 0  0.51 0.08 0  0.54 0.08 0  0.57 0.08 0  0.6 0.08 0  0.63 0.08 0  0.66 0.08 0  0.6899999999999999 0.08 0  0.72 0.08 0  0.75 0.08 0  0.78 0.08 0  0.8100000000000001 0.08 0  0.84 0.08 0  0.87 0.08 0  0.9 0.08 0  0.93 0.08 0  0.96 0.08 0  0.99 0.08 0  1.02 0.08 0  1.05 0.08 0  1.08 0.08 0  1.11 0.08 0  1.14 0.08 0  1.17 0.08 0  1.2 0.08 0  1.23 0.08 0  1.26 0.08 0  1.29 0.08 0  1.32 0.08 0  1.35 0.08 0  1.38 0.08 0  1.41 0.08 0  1.44 0.08 0  1.47 0.08 0  1.5 0.08 0  0 0.1 0  0.03 0.1 0  0.06 0.1 0  0.09 0.1 0  0.12 0.1 0  0.15 0.1 0  0.18 0.1 0  0.21 0.1 0  0.24 0.1 0  0.27 0.1 0  0.3 0.1 0  0.33 0.1 0  0.36 0.1 0  0.39 0.1 0  0.42 0.1 0  0.45 0.1 0  0.48 0.1 0  0.51 0.1 0  0.54 0.1 0  0.57 0.1 0  0.6 0.1 0  0.63 0.1 0  0.66 0.1 0  0.6899999999999999 0.1 0  0.72 0.1 0  0.75 0.1 0  0.78 0.1 0  0.8100000000000001 0.1 0  0.84 0.1 0  0.87 0.1 0  0.9 0.1 0  0.93 0.1 0  0.96 0.1 0  0.99 0.1 0  1.02 0.1 0  1.05 0.1 0  1.08 0.1 0  1.11 0.1 0  1.14 0.1 0  1.17 0.1 0  1.2 0.1 0  1.23 0.1 0  1.26 0.1 0  1.29 0.1 0  1.32 0.1 0  1.35 0.1 0  1.38 0.1 0  1.41 0.1 0  1.44 0.1 0  1.47 0.1 0  1.5 0.1 0  0 0.12 0  0.03 0.12 0  0.06 0.12 0  0.09 0.12 0  0.12 0.12 0  0.15 0.12 0  0.18 0.12 0  0.21 0.12 0  0.24 0.12 0  0.27 0.12 0  0.3 0.12 0  0.33 0.12 0  0.36 0.12 0  0.39 0.12 0  0.42 0.12 0  0.45 0.12 0  0.48 0.12 0  0.51 0.12 0  0.54 0.12 0  0.57 0.12 0  0.6 0.12 0  0.63 0.12 0  0.66 0.12 0  0.6899999999999999 0.12 0  0.72 0.12 0  0.75 0.12 0  0.78 0.12 0  0.8100000000000001 0.12 0  0.84 0.12 0  0.87 0.12 0  0.9 0.12 0  0.93 0.12 0  0.96 0.12 0  0.99 0.12 0  1.02 0.12 0  1.05 0.12 0  1.08 0.12 0  1.11 0.12 0  1.14 0.12 0  1.17 0.12 0  1.2 0.12 0  1.23 0.12 0  1.26 0.12 0  1.29 0.12 0  1.32 0.12 0  1.35 0.12 0  1.38 0.12 0  1.41 0.12 0  1.44 0.12 0  1.47 0.12 0  1.5 0.12 0  0 0.14 0  0.03 0.14 0  0.06 0.14 0  0.09 0.14 0  0.12 0.14 0  0.15 0.14 0  0.18 0.14 0  0.21 0.14 0  0.24 0.14 0  0.27 0.14 0  0.3 0.14 0  0.33 0.14 0  0.36 0.14 0  0.39 0.14 0  0.42 0.14 0  0.45 0.14 0  0.48 0.14 0  0.51 0.14 0  0.54 0.14 0  0.57 0.14 0  0.6 0.14 0  0.63 0.14 0  0.66 0.14 0  0.6899999999999999 0.14 0  0.72 0.14 0  0.75 0.14 0  0.78 0.14 0  0.8100000000000001 0.14 0  0.84 0.14 0  0.87 0.14 0  0.9 0.14 0  0.93 0.14 0  0.96 0.14 0  0.99 0.14 0  1.02 0.14 0  1.05 0.14 0  1.08 0.14 0  1.11 0.14 0  1.14 0.14 0  1.17 0.14 0  1.2 0.14 0  1.23 0.14 0  1.26 0.14 0  1.29 0.14 0  1.32 0.14 0  1.35 0.14 0  1.38 0.14 0  1.41 0.14 0  1.44 0.14 0  1.47 0.14 0  1.5 0.14 0  0 0.16 0  0.03 0.16 0  0.06 0.16 0  0.09 0.16 0  0.12 0.16 0  0.15 0.16 0  0.18 0.16 0  0.21 0.16 0  0.24 0.16 0  0.27 0.16 0  0.3 0.16 0  0.33 0.16 0  0.36 0.16 0  0.39 0.16 0  0.42 0.16 0  0.45 0.16 0  0.48 0.16 0  0.51 0.16 0  0.54 0.16 0  0.57 0.16 0  0.6 0.16 0  0.63 0.16 0  0.66 0.16 0  0.6899999999999999 0.16 0  0.72 0.16 0  0.75 0.16 0  0.78 0.16 0  0.8100000000000001 0.16 0  0.84 0.16 0  0.87 0.16 0  0.9 0.16 0  0.93 0.16 0  0.96 0.16 0  0.99 0.16 0  1.02 0.16 0  1.05 0.16 0  1.08 0.16 0  1.11 0.16 0  1.14 0.16 0  1.17 0.16 0  1.2 0.16 0  1.23 0.16 0  1.26 0.16 0  1.29 0.16 0  1.32 0.16 0  1.35 0.16 0  1.38 0.16 0  1.41 0.16 0  1.44 0.16 0  1.47 0.16 0  1.5 0.16 0  0 0.18 0  0.03 0.18 0  0.06 0.18 0  0.09 0.18 0  0.12 0.18 0  0.15 0.18 0  0.18 0.18 0  0.21 0.18 0  0.24 0.18 0  0.27 0.18 0  0.3 0.18 0  0.33 0.18 0  0.36 0.18 0  0.39 0.18 0  0.42 0.18 0  0.45 0.18 0  0.48 0.18 0  0.51 0.18 0  0.54 0.18 0  0.57 0.18 0  0.6 0.18 0  0.63 0.18 0  0.66 0.18 0  0.6899999999999999 0.18 0  0.72 0.18 0  0.75 0.18 0  0.78 0.18 0  0.8100000000000001 0.18 0  0.84 0.18 0  0.87 0.18 0  0.9 0.18 0  0.93 0.18 0  0.96 0.18 0  0.99 0.18 0  1.02 0.18 0  1.05 0.18 0  1.08 0.18 0  1.11 0.18 0  1.14 0.18 0  1.17 0.18 0  1.2 0.18 0  1.23 0.18 0  1.26 0.18 0  1.29 0.18 0  1.32 0.18 0  1.35 0.18 0  1.38 0.18 0  1.41 0.18 0  1.44 0.18 0  1.47 0.18 0  1.5 0.18 0  0 0.2 0  0.03 0.2 0  0.06 0.2 0  0.09 0.2 0  0.12 0.2 0  0.15 0.2 0  0.18 0.2 0  0.21 0.2 0  0.24 0.2 0  0.27 0.2 0  0.3 0.2 0  0.33 0.2 0  0.36 0.2 0  0.39 0.2 0  0.42 0.2 0  0.45 0.2 0  0.48 0.2 0  0.51 0.2 0  0.54 0.2 0  0.57 0.2 0  0.6 0.2 0  0.63 0.2 0  0.66 0.2 0  0.6899999999999999 0.2 0  0.72 0.2 0  0.75 0.2 0  0.78 0.2 0  0.8100000000000001 0.2 0  0.84 0.2 0  0.87 0.2 0  0.9 0.2 0  0.93 0.2 0  0.96 0.2 0  0.99 0.2 0  1.02 0.2 0  1.05 0.2 0  1.08 0.2 0  1.11 0.2 0  1.14 0.2 0  1.17 0.2 0  1.2 0.2 0  1.23 0.2 0  1.26 0.2 0  1.29 0.2 0  1.32 0.2 0  1.35 0.2 0  1.38 0.2 0  1.41 0.2 0  1.44 0.2 0  1.47 0.2 0  1.5 0.2 0  0 0.22 0  0.03 0.22 0  0.06 0.22 0  0.09 0.22 0  0.12 0.22 0  0.15 0.22 0  0.18 0.22 0  0.21 0.22 0  0.24 0.22 0  0.27 0.22 0  0.3 0.22 0  0.33 0.22 0  0.36 0.22 0  0.39 0.22 0  0.42 0.22 0  0.45 0.22 0  0.48 0.22 0  0.51 0.22 0  0.54 0.22 0  0.57 0.22 0  0.6 0.22 0  0.63 0.22 0  0.66 0.22 0  0.6899999999999999 0.22 0  0.72 0.22 0  0.75 0.22 0  0.78 0.22 0  0.8100000000000001 0.22 0  0.84 0.22 0  0.87 0.22 0  0.9 0.22 0  0.93 0.22 0  0.96 0.22 0  0.99 0.22 0  1.02 0.22 0  1.05 0.22 0  1.08 0.22 0  1.11 0.22 0  1.14 0.22 0  1.17 0.22 0  1.2 0.22 0  1.23 0.22 0  1.26 0.22 0  1.29 0.22 0  1.32 0.22 0  1.35 0.22 0  1.38 0.22 0  1.41 0.22 0  1.44 0.22 0  1.47 0.22 0  1.5 0.22 0  0 0.24 0  0.03 0.24 0  0.06 0.24 0  0.09 0.24 0  0.12 0.24 0  0.15 0.24 0  0.18 0.24 0  0.21 0.24 0  0.24 0.24 0  0.27 0.24 0  0.3 0.24 0  0.33 0.24 0  0.36 0.24 0  0.39 0.24 0  0.42 0.24 0  0.45 0.24 0  0.48 0.24 0  0.51 0.24 0  0.54 0.24 0  0.57 0.24 0  0.6 0.24 0  0.63 0.24 0  0.66 0.24 0  0.6899999999999999 0.24 0  0.72 0.24 0  0.75 0.24 0  0.78 0.24 0  0.8100000000000001 0.24 0  0.84 0.24 0  0.87 0.24 0  0.9 0.24 0  0.93 0.24 0  0.96 0.24 0  0.99 0.24 0  1.02 0.24 0  1.05 0.24 0  1.08 0.24 0  1.11 0.24 0  1.14 0.24 0  1.17 0.24 0  1.2 0.24 0  1.23 0.24 0  1.26 0.24 0  1.29 0.24 0  1.32 0.24 0  1.35 0.24 0  1.38 0.24 0  1.41 0.24 0  1.44 0.24 0  1.47 0.24 0  1.5 0.24 0  0 0.26 0  0.03 0.26 0  0.06 0.26 0  0.09 0.26 0  0.12 0.26 0  0.15 0.26 0  0.18 0.26 0  0.21 0.26 0  0.24 0.26 0  0.27 0.26 0  0.3 0.26 0  0.33 0.26 0  0.36 0.26 0  0.39 0.26 0  0.42 0.26 0  0.45 0.26 0  0.48 0.26 0  0.51 0.26 0  0.54 0.26 0  0.57 0.26 0  0.6 0.26 0  0.63 0.26 0  0.66 0.26 0  0.6899999999999999 0.26 0  0.72 0.26 0  0.75 0.26 0  0.78 0.26 0  0.8100000000000001 0.26 0  0.84 0.26 0  0.87 0.26 0  0.9 0.26 0  0.93 0.26 0  0.96 0.26 0  0.99 0.26 0  1.02 0.26 0  1.05 0.26 0  1.08 0.26 0  1.11 0.26 0  1.14 0.26 0  1.17 0.26 0  1.2 0.26 0  1.23 0.26 0  1.26 0.26 0  1.29 0.26 0  1.32 0.26 0  1.35 0.26 0  1.38 0.26 0  1.41 0.26 0  1.44 0.26 0  1.47 0.26 0  1.5 0.26 0  0 0.28 0  0.03 0.28 0  0.06 0.28 0  0.09 0.28 0  0.12 0.28 0  0.15 0.28 0  0.18 0.28 0  0.21 0.28 0  0.24 0.28 0  0.27 0.28 0  0.3 0.28 0  0.33 0.28 0  0.36 0.28 0  0.39 0.28 0  0.42 0.28 0  0.45 0.28 0  0.48 0.28 0  0.51 0.28 0  0.54 0.28 0  0.57 0.28 0  0.6 0.28 0  0.63 0.28 0  0.66 0.28 0  0.6899999999999999 0.28 0  0.72 0.28 0  0.75 0.28 0  0.78 0.28 0  0.8100000000000001 0.28 0  0.84 0.28 0  0.87 0.28 0  0.9 0.28 0  0.93 0.28 0  0.96 0.28 0  0.99 0.28 0  1.02 0.28
[...]
<PointData  Scalars="sensitivity"> 
<DataArray  type="Float64"  Name="sensitivity"  format="ascii">-1.3043063832140885e-06  -1.8495261642665587e-05  -7.7025133001241939e-05  -1.9596191080354603e-04  -3.7566186871275874e-04  -5.9352950308865784e-04  -8.1743789743705920e-04  -1.0200366427202611e-03  -1.1851907197358001e-03  -1.3074938716240577e-03  -1.3885001957647171e-03  -1.4332411981590738e-03  -1.4482246493529589e-03  -1.4403613697986724e-03  -1.4162537944621806e-03  -1.3817326673125666e-03  -1.3416475386808097e-03  -1.2998436834496796e-03  -1.2592334223447434e-03  -1.2219095849218427e-03  -1.1892854817017367e-03  -1.1622520520286187e-03  -1.1413337789659131e-03  -1.1268212144687467e-03  -1.1188660105389528e-03  -1.1175376085877477e-03  -1.1228497177408032e-03  -1.1347648665705409e-03  -1.1531784113834249e-03  -1.1778752604199414e-03  -1.2084496882271807e-03  -1.2441847725467340e-03  -1.2839008844178397e-03  -1.3257932017075316e-03  -1.3672794441474880e-03  -1.4048733637103670e-03  -1.4341057523716266e-03  -1.4495350535747009e-03  -1.4449048513188697e-03  -1.4134855534902895e-03  -1.3485360786057241e-03  -1.2440984363855459e-03  -1.0967490190091217e-03  -9.0865492025136876e-04  -6.9142131891080586e-04  -4.6758545135246676e-04  -2.6766189555414255e-04  -1.2080641317333511e-04  -3.8169934093628787e-05  -5.4755361385789791e-06  -5.2712894501411942e-08  -9.3790285647866812e-06  -7.5542307220640559e-05  -3.0079223961784773e-04  -7.9022017835026544e-04  -1.5631262078106389e-03  -2.5325106498255735e-03  -3.5563434144696092e-03  -4.5036912106645264e-03  -5.2910420570918939e-03  -5.8856613626055198e-03  -6.2897364281311605e-03  -6.5235491594314186e-03  -6.6154998966366915e-03  -6.5968445365549386e-03  -6.4981525517659160e-03  -6.3468597753538513e-03  -6.1660548436653605e-03  -5.9742347716927428e-03  -5.7855615125871479e-03  -5.6103325697253181e-03  -5.4555849405361623e-03  -5.3258019388066043e-03  -5.2236447318597104e-03  -5.1505975068640375e-03  -5.1074444551030733e-03  -5.0945622589100292e-03  -5.1120638267141954e-03  -5.1598386049415759e-03  -5.2375054196549808e-03  -5.3442513032798200e-03  -5.4785070585285003e-03  -5.6374308330380844e-03  -5.8162305416694709e-03  -6.0074179527591868e-03  -6.2001012285217124e-03  -6.3793813571140596e-03  -6.5259314967372221e-03  -6.6159182862609179e-03  -6.6216328250118285e-03  -6.5128912071872108e-03  -6.2589881175466660e-03  -5.8314991308947442e-03  -5.2110426784803543e-03  -4.3990830743667530e-03  -3.4359980359554470e-03  -2.4122575700944201e-03  -1.4584223134484432e-03  -7.1414834369312740e-04  -2.6087284550741863e-04  -6.2293827545559173e-05  -3.6019892023384011e-06  -2.7053882457811441e-05  -1.4691457330438389e-04  -4.3703127421151021e-04  -1.0520703644900104e-03  -1.9939219613178761e-03  -3.1429961577670779e-03  -4.3342787049394328e-03  -5.4208846735978502e-03  -6.3128941694693790e-03  -6.9799298348174445e-03  -7.4284176298106694e-03  -7.6819329386231599e-03  -7.7725223583054786e-03  -7.7361392334125206e-03  -7.6083470814021989e-03  -7.4210391683520224e-03  -7.2009647292420815e-03  -6.9695465856752861e-03  -6.7432038979359640e-03  -6.5338382079276943e-03  -6.3494821909912706e-03  -6.1951316151142325e-03  -6.0736542414715237e-03  -5.9865975488412630e-03  -5.9347663737599980e-03  -5.9185523008695225e-03  -5.9380802844115612e-03  -5.9932501563192322e-03  -6.0837009471433620e-03  -6.2086549318832694e-03  -6.3665569747043847e-03  -6.5544527989306522e-03  -6.7671452137033480e-03  -6.9962825263494089e-03  -7.2295316656262156e-03  -7.4498968940590648e-03  -7.6352330878365947e-03  -7.7580810512458782e-03  -7.7864997358973956e-03  -7.6856517072068520e-03  -7.4209797967965561e-03  -6.9595411146334924e-03  -6.2764922787928498e-03  -5.3657045473136725e-03  -4.2642719307189750e-03  -3.0717977219781468e-03  -1.9280320503001593e-03  -9.9356591760298152e-04  -3.9779369321922125e-04  -1.3065476004088796e-04  -1.6362861129713049e-05  -4.4265778889422690e-05  -2.4908590681622749e-04  -6.5044911244782698e-04  -1.4066364936514118e-03  -2.4509019946078411e-03  -3.6401732524818054e-03  -4.8269571149847914e-03  -5.8736121069719359e-03  -6.7060900661104891e-03  -7.3137670136516827e-03  -7.7111214070825079e-03  -7.9204804678717714e-03  -7.9717050946019833e-03  -7.9003865174859921e-03  -7.7423706067778686e-03  -7.5294299201387497e-03  -7.2878884804384141e-03  -7.0388029536780534e-03  -6.7983490984908782e-03  -6.5781507618589757e-03  -6.3858048599511478e-03  -6.2257464907012122e-03  -6.1002969559921846e-03  -6.0105960928691091e-03  -5.9572162918864208e-03  -5.9404505283259922e-03  -5.9603994456520542e-03  -6.0169916056435156e-03  -6.1099841230411222e-03  -6.2388718021559033e-03  -6.4025575676964850e-03  -6.5986734154220156e-03  -6.8225978841762198e-03  -7.0664271031671494e-03  -7.3181347630500281e-03  -7.5610251132316782e-03  -7.7732441876244814e-03  -7.9273809825196589e-03  -7.9912220465661425e-03  -7.9301547822934835e-03  -7.7135713225918558e-03  -7.3088639097298709e-03  -6.6875344402516799e-03  -5.8340706868202953e-03  -4.7646943563706837e-03  -3.5757680380218509e-03  -2.3873600911867160e-03  -1.3312639028453999e-03  -5.7884331598514159e-04  -2.1199993997065184e-04  -3.4294907829024995e-05  -4.1175394926671597e-05  -3.7467373115402064e-04  -1.0709515918535960e-03  -2.1170416259663830e-03  -3.2651610031479493e-03  -4.4338627379518812e-03  -5.5625777906332437e-03  -6.5021492627490704e-03  -7.2110509379160496e-03  -7.7138105153598639e-03  -8.0287377493625210e-03  -8.1693399036339986e-03  -8.1601952495882982e-03  -8.0367815847902715e-03  -7.8354431114345847e-03  -7.5871544335472264e-03  -7.3169562187484927e-03  -7.0449968366900102e-03  -6.7869373353879213e-03  -6.5538864325300900e-03  -6.3526568816631773e-03  -6.1866951192995736e-03  -6.0573936421887279e-03  -5.9652411199294375e-03  -5.9104762375345801e-03  -5.8932739505316162e-03  -5.9137081055497392e-03  -5.9717269709490895e-03  -6.0672241992277987e-03  -6.2000833498345757e-03  -6.3699313772847899e-03  -6.5753788942609168e-03  -6.8127869255229616e-03  -7.0749887306928057e-03  -7.3505271423122652e-03  -7.6234180843059067e-03  -7.8724314159223392e-03  -8.0707230914582075e-03  -8.1858201454554566e-03  -8.1849588113395520e-03  -8.0405048327581927e-03  -7.7249895468846259e-03  -7.2110251987821897e-03  -6.4914647360199791e-03  -5.5123946100282236e-03  -4.3847652723219442e-03  -3.2389493668708723e-03  -2.0505964258706842e-03  -9.5963005636514134e-04  -2.8040897643392520e-04  -4.0992685429646468e-05  -4.5285957631217045e-05  -7.0896986315934765e-04  -2.6700190355856868e-03  -5.0121335568592230e-03  -5.9996928124372911e-03  -6.3999759709894881e-03  -6.9062082311086553e-03  -7.4357332861595144e-03  -7.8887510440826848e-03  -8.2330875935175112e-03  -8.4410471654840346e-03  -8.4920486311598105e-03  -8.4015816904869055e-03  -8.2079934935937824e-03  -7.9494185847704298e-03  -7.6550102002375950e-03  -7.3474288516177559e-03  -7.0455582775319639e-03  -6.7646089160212624e-03  -6.5151734691620807e-03  -6.3029716320673283e-03  -6.1299465448226625e-03  -5.9960967549184709e-03  -5.9010092754246020e-03  -5.8445435909008584e-03  -5.8268004834785359e-03  -5.8478478683854605e-03  -5.9076115219045934e-03  -6.0060745345548207e-03  -6.1435825348365265e-03  -6.3207833149930715e-03  -6.5377619411417951e-03  -6.7923612211574355e-03  -7.0783591625361167e-03  -7.3850007379453828e-03  -7.6969143397846562e-03  -7.9940903809720479e-03  -8.2522151234105268e-03  -8.4361093027218552e-03  -8.5129419837987122e-03  -8.4484611881189969e-03  -8.2933272256528450e-03  -7.9828988745251680e-03  -7.6446818835913524e-03  -7.2027867545557999e-03  -6.8525768430048326e-03  -6.3425543450368015e-03  -4.3701459202204950e-03  -1.8912585787098362e-03  -3.8673621171317135e-04  -2.7525405292598237e-05  -5.9554303030902637e-04  -3.0374258034249089e-03  -1.0715581494559095e-02  -1.9674971017675635e-02  -2.2405396940866441e-02  -1.8557931719646981e-02  -1.3457153280487704e-02  -1.0054003756546156e-02  -8.9587957830978907e-03  -8.9043401322238726e-03  -8.9579226067262041e-03  -8.8957049841009266e-03  -8.6987325984585508e-03  -8.4147155166158592e-03  -8.0852571085153879e-03  -7.7345170371408605e-03  -7.3809060487797055e-03  -7.0418568582047330e-03  -6.7326088829017606e-03  -6.4634874008448482e-03  -6.2387231402453768e-03  -6.0579765904108206e-03  -5.9191913660448011e-03  -5.8207811677452653e-03  -5.7622815649752543e-03  -5.7438736272741493e-03  -5.7656803329683799e-03  -5.8275043142177844e-03  -5.9292495504435624e-03  -6.0717097436564409e-03  -6.2569099530775333e-03  -6.4871324176978534e-03  -6.7624875942794791e-03  -7.0778183447062345e-03  -7.4227973512627065e-03  -7.7823213942964523e-03  -8.1408463976087257e-03  -8.4753055646941775e-03  -8.7430187618473890e-03  -8.9220323813207301e-03  -8.9784059665537347e-03  -9.1770301480250619e-03  -9.5193569965104537e-03  -1.1073480762784955e-02  -1.3784080426855550e-02  -1.7907528974094797e-02  -2.2264931036753120e-02  -2.0275845072851285e-02  -1.1913612420543312e-02  -2.5282476835970817e-03  -9.3197226668534198e-05  -1.8126475110373120e-03  -1.8758449384478893e-02  -3.1514457375229288e-02  -3.1517628094594824e-02  -3.1516932044429791e-02  -3.1514324369946022e-02  -3.1501270320135527e-02  -2.5009854570122423e-02  -1.4397162333849852e-02  -1.0396399663327009e-02  -9.6678506974833354e-03  -9.3993940829364218e-03  -9.0504981867160616e-03  -8.6518714005268931e-03  -8.2395895609836504e-03  -7.8236112234844075e-03  -7.4154201581795873e-03  -7.0314584892870449e-03  -6.6882549238212697e-03  -6.3965896837148446e-03  -6.1585848395422412e-03  -5.9703198385372648e-03  -5.8266916058855624e-03  -5.7246742699447193e-03  -5.6637431898629315e-03  -5.6445114836588877e-03  -5.6672881663824941e-03  -5.7315545638018739e-03  -5.8367375585776727e-03  -5.9838871094550945e-03  -6.1768337359655303e-03  -6.4211211635575227e-03  -6.7204919667099997e-03  -7.0709398869810078e-03  -7.4614716784940178e-03  -7.8781256068265471e-03  -8.3100571587784080e-03  -8.7304361071051800e-03  -9.1324410625897110e-03  -9.4842255109338844e-03  -9.8474828127548784e-03  -1.1607967846832833e-02  -1.5074590699879821e-02  -2.3210925749703813e-02  -3.1494734279703257e-02  -3.1513569292988909e-02  -3.1516388895782010e-02  -3.1516849688302657e-02  -3.1514940883930476e-02  -1.9161110522450515e-02  -1.7579523875003850e-03  -9.4176530014804718e-03  -3.1518732387302274e-02  -3.1520734666562897e-02  -3.1520751080063400e-02  -3.1520373366632083e-02  -3.1519565209002787e-02  -3.1518313684118018e-02  -3.1514582905583913e-02  -3.1485891869239079e-02  -1.9233583656727737e-02  -1.2025557923417151e-02  -1.0163937425587771e-02  -9.4671052777924140e-03  -8.9115372620256639e-03  -8.4092845201221497e-03  -7.9206320398785938e-03  -7.4490745624412654e-03  -7.0112934567208322e-03  -6.6277160572858693e-03  -6.3112933964674196e-03  -6.0608382696298348e-03  -5.8665479362929015e-03  -5.7187503904898391e-03  -5.6128092539830957e-03  -5.5488220693341766e-03  -5.5285121034552957e-03  -5.5526203644464195e-03  -5.6199659524755804e-03  -5.7286807495394712e-03  -5.8795363458683221e-03  -6.0785833778979085e-03  -6.3362684413577099e-03  -6.6626728471195018e-03  -7.0557290327381257e-03  -7.4986702600312281e-03  -7.9825236433427264e-03  -8.4892346174164912e-03  -9.0443987336052464e-03  -9.7034756613686365e-03  -1.0597037511012481e-02  -1.2910081944878781e-02  -1.9210975119471462e-02  -3.1447553094022647e-02  -3.1514895236211975e-02  -3.1518678821086853e-02  -3.1519683328664380e-02  -3.1520340622485238e-02  -3.1520724649374790e-02  -3.1520434902495488e-02  -3.1519295133239970e-02  -7.1384132090703207e-03  -1.5760128400236686e-02  -3.1521215063745819e-02  -3.1520001153057968e-02  -3.1520232940467401e-02  -3.1520320283064882e-02  -3.1520287097596515e-02  -3.1520399351187042e-02  -3.1519245418369833e-02  -3.1517481027708495e-02  -3.1507262880634539e-02  -2.4615882523356964e-02  -1.3785539269366895e-02  -1.0201195680718124e-02  -9.2213549251938150e-03  -8.6003105989593594e-03  -8.0263072628202863e-03  -7.4812824201146632e-03  -6.9780559500026108e-03  -6.5456573918714137e-03  -6.2033400940400083e-03  -5.9436759555563882e-03  -5.7467867779981713e-03  -5.5961209108455166e-03  -5.4855714441030797e-03  -5.4173586388056695e-03  -5.3955095818402615e-03  -5.4216132350771501e-03  -5.4933253576108466e-03  -5.6059026692139692e-03  -5.7586115367382427e-03  -5.9600073909183565e-03  -6.2282935693022089e-03  -6.5838964316007869e-03  -7.0313273232993989e-03  -7.5305999865860349e-03  -8.1037327941433229e-03  -8.6995918840634314e-03  -9.5431251849687048e-03  -1.1203284761137796e-02  -1.4497927068606054e-02  -2.3023265370060032e-02  -3.1497990131620454e-02  -3.1518067184629517e-02  -3.1520151892366656e-02  -3.1520407563829428e-02  -3.1519962121676376e-02  -3.1520180353029191e-02  -3.1519888994998267e-02  -3.1519626179898647e-02  -3.1519455661985253e-02  -1.5759229895061053e-02  -1.8326312662473747e-02  -3.1540345604064525e-02  -3.1521438908432356e-02  -3.1521483174357878e-02  -3.1520764827415657e-02  -3.1520241724917755e-02  -3.1520121628854134e-02  -3.1520181405625146e-02  -3.1519959790622380e-02  -3.1518556962892588e-02  -3.1514288944962492e-02  -3.0471021562527761e-02  -1.5588933478723253e-02  -1.0291090102980625e-02  -8.9287744758474365e-03  -8.1599015488601784e-03  -7.5201818879998836e-03  -6.9306169239515148e-03  -6.4350253989761278e-03  -6.0678226143276682e-03  -5.8060933118967636e-03  -5.6127508665144415e-03  -5.4609968239665461e-03  -5.3440317314153189e-03  -5.2693548906960711e-03  -5.2452282037371064e-03  -5.2744497529532662e-03  -5.3531627606198248e-03  -5.4708405807857834e-03  -5.6225950663293242e-03  -5.8199428670557005e-03  -6.0928705809073771e-03  -6.4762512795552502e-03  -7.0089356170975657e-03  -7.5801704454345354e-03  -8.3031342604899874e-03  -9.1808160018319127e-03  -1.1664391114487338e-02  -1.6355939833321655e-02  -2.7504734326850699e-02  -3.1510559501012295e-02  -3.1517397012747000e-02  -3.1520043815492067e-02  -3.1520000922553137e-02  -3.1520081680386190e-02  -3.1520703823121568e-02  -3.1521228123791427e-02  -3.1521164442028404e-02  -3.1522213593199525e-02  -3.1811926571754939e-02  -1.6625239159051810e-02  -2.8533045291407114e-02  -4.6138561686667870e-02  -3.5624967962666239e-02  -3.1523036096097051e-02  -3.1521379782769081e-02  -3.1521161019471743e-02  -3.1520424074981963e-02  -3.1519969786355781e-02  -3.1519966340645293e-02  -3.1520410931491674e-02  -3.1518624524496421e-02  -3.1514734310431891e-02  -3.1485578878248793e-02  -1.9095779284088777e-02  -1.1372840789189202e-02  -8.7045159205059834e-03  -7.6937824585582596e-03  -6.9126076552520413e-03  -6.3082524213831318e-03  -5.9144729987874864e-03  -5.6584761106065126e-03  -5.4761678433552369e-03  -5.3239637237089722e-03  -5.1955349552842761e-03  -5.1101879441007528e-03  -5.0826492400865720e-03  -5.1164451923946539e-03  -5.2083678896349328e-03  -5.3363364811737672e-03  -5.4860393720424904e-03  -5.6747705504624204e-03  -5.9483292779245042e-03  -6.3662938749449909e-03  -7.0762720670074254e-03  -7.8601587857400328e-03  -9.4167410127896870e-03  -1.2433286820315925e-02  -1.8965882743445711e-02  -3.1435319512506894e-02  -3.1514694714781924e-02  -3.1518681782182950e-02  -3.1519856853190961e-02  -3.1519737425288401e-02  -3.1520286195478163e-02  -3.1520967498244172e-02  -3.1521425983276612e-02  -3.1521324595160535e-02  -3.1523365357712184e-02  -3.7739204887898170e-02  -4.7930816599088946e-02  -2.5075473953546271e-02  -3.5080405653789268e-02  -6.0546912652872750e-02  -4.6019601486144812e-02  -3.5288470805712284e-02  -3.1522524254798359e-02  -3.1521881298875225e-02  -3.1521258947070883e-02  -3.1520589648710497e-02  -3.1519906052694391e-02  -3.1519846808787430e-02  -3.1520381437133586e-02  -3.1518649677044090e-02  -3.1517653426670074e-02  -3.1509197312702672e-02  -2.6602166998807023e-02  -1.5725790505633649e-02  -1.0375241889764186e-02  -7.8685771381697064e-03  -6.6732785782418896e-03  -6.0650655493737606e-03  -5.7178286803764205e-03  -5.4971253106806646e-03  -5.3140104534414642e-03  -5.1516644494266472e-03  -5.0453340301812978e-03  -5.0128177263805149e-03  -5.0554231532882587e-03  -5.1789158921869373e-03  -5.3462169368130464e-03  -5.5363512915649641e-03  -5.7947150501896864e-03  -6.2112786029838120e-03  -6.9516742435269431e-03  -8.7042568370771581e-03  -1.1292927104090194e-02  -1.5547632682478853e-02  -2.5138120559552488e-02  -3.1503007032509224e-02  -3.1518256163847347e-02  -3.1520117344867787e-02  -3.1519628305378057e-02  -3.1519744845465332e-02  -3.1520356513368257e-02  -3.1520973693851290e-02  -3.1521377343480907e-02  -3.1521336262464165e-02  -3.1523386297550263e-02  -3.6357216681510700e-02  -4.6458383034201731e-02  -6.0499465539602643e-02  -3.3666358016470693e-02  -3.4014056893634882e-02  -6.2913805094211309e-02  -5.0483519252287869e-02  -3.9846250712017257e-02  -3.2802228566384074e-02  -3.1522426295074971e-02  -3.1521812369591735e-02  -3.1521431058057867e-02  -3.1520691055911230e-02  -3.1519855156187680e-02  -3.1519690517608327e-02  -3.1520229294011992e-02  -3.1519672465201848e-02  -3.1518229901165588e-02  -3.1514218628075463e-02  -3.1501696359570099e-02  -2.8239817525400467e-02  -1.9377876215478373e-02  -1.4288538161154196e-02  -1.1658628119514042e-02  -1.0089438926144273e-02  -9.1183939749135742e-03  -8.4337217523755628e-03  -7.9632058363150945e-03  -7.7296897092370030e-03  -7.6771040775218853e-03  -7.7853426025958619e-03  -8.1069268466621106e-03  -8.5796301818496946e-03  -9.2020195095858931e-03  -1.0167244601225438e-02  -1.1700814064057260e-02  -1.4203834749217400e-02  -1.8940395762227707e-02  -2.7384308922514283e-02  -3.1499719372276580e-02  -3.1512633523108076e-02  -3.1517778720834472e-02  -3.1520520240996205e-02  -3.1519767240602369e-02  -3.1519698575036240e-02  -3.1520526605255984e-02  -3.1521023655350158e-02  -3.1521581177382831e-02  -3.1521985680550813e-02  -3.1522454675233180e-02  -3.3329041994808704e-02  -3.9793110509148882e-02  -4.9833254621877619e-02  -6.2143441665887048e-02  -3.5179881731207084e-02  -2.5773088922954435e-02  -5.2483056397388553e-02  -4.5938830399219109e-02  -3.9539499970239783e-02  -3.4225399761417474e-02  -3.1524816763198765e-02  -3.1522598251337970e-02  -3.1521714142033690e-02  -3.1521527184149550e-02  -3.1520746937973035e-02  -3.1519829219624845e-02  -3.1519518503806819e-02  -3.1520105821425851e-02  -3.1520474010817159e-02  -3.1518851790515695e-02  -3.1517809484749741e-02  -3.1517123849165565e-02  -3.1513211229739872e-02  -3.1508009371238550e-02  -3.1501144338692361e-02  -3.1477668194420667e-02  -3.1414708993920945e-02  -3.0984079980157658e-02  -2.9813387893132329e-02  -2.9007138266164700e-02  -2.8748391658411924e-02  -2.8959859520337847e-02  -2.9713310562039033e-02  -3.0885116047081464e-02  -3.1401552110154017e-02  -3.1474269100025945e-02  -3.1498942600874748e-02  -3.1506372771310659e-02  -3.1513377062141572e-02  -3.1515317483443953e-02  -3.1518642690056935e-02  -3.1519614663945393e-02  -3.1520107289885045e-02  -3.1519640822825108e-02  -3.1519791261034734e-02  -3.1520496438477340e-02  -3.1521312551047592e-02  -3.1521519575568153e-02  -3.1521980253187559e-02  -3.1522419688942628e-02  -3.1526290944451155e-02  -3.4121064969030529e-02  -3.8784109051432196e-02  -4.4794828085223989e-02  -5.1203786259726082e-02  -2.9053066738489963e-02  -1.6698225930580152e-02  -3.6184301023006175e-02  -3.5935837224034727e-02  -3.4728716621087972e-02  -3.2987997440047295e-02  -3.1530387325855974e-02  -3.1522757038317327e-02  -3.1522070988429962e-02  -3.1521814713329814e-02  -3.1521574040206279e-02  -3.1520817064278679e-02  -3.1519878137695294e-02  -3.1519359616161056e-02  -3.1519626849500285e-02  -3.1520212989852713e-02  -3.1520602955882264e-02  -3.1520282835532924e-02  -3.1519182589816994e-02  -3.1518700166787594e-02  -3.1518811596801741e-02  -3.1518612640683161e-02  -3.1518175847284099e-02  -3.1518097727241685e-02  -3.1517910611043420e-02  -3.1518015177299755e-02  -3.1518238435909313e-02  -3.1518229509976695e-02  -3.1518075682898244e-02  -3.1518022577118124e-02  -3.1518339235846529e-02  -3.1518652556948787e-02  -