<?xml version="1.0"?>
<VTKFile type="UnstructuredGrid"  version="0.1"  >
<UnstructuredGrid>
<Piece  NumberOfPoints="2601" NumberOfCells="5000">
<Points>
<DataArray  type="Float64"  NumberOfComponents="3"  format="ascii">0 0 0  0.03 0 0  0.06 0 0  0.09 0 0  0.12 0 0  0.15 0 0  0.18 0 0  0.21 0 0  0.24 0 0  0.27 0 0  0.3 0 0  0.33 0 0  0.36 0 0  0.39 0 0  0.42 0 0  0.45 0 0  0.48 0 0  0.51 0 0  0.54 0 0  0.57 0 0  0.6 0 0  0.63 0 0  0.66 0 0  0.6899999999999999 0 0  0.72 0 0  0.75 0 0  0.78 0 0  0.8100000000000001 0 0  0.84 0 0  0.87 0 0  0.9 0 0  0.93 0 0  0.96 0 0  0.99 0 0  1.02 0 0  1.05 0 0  1.08 0 0  1.11 0 0  1.14 0 0  1.17 0 0  1.2 0 0  1.23 0 0  1.26 0 0  1.29 0 0  1.32 0 0  1.35 0 0  1.38 0 0  1.41 0 0  1.44 0 0  1.47 0 0  1.5 0 0  0 0.02 0  0.03 0.02 0  0.06 0.02 0  0.09 0.02 0  0.12 0.02 0  0.15 0.02 0  0.18 0.02 0  0.21 0.02 0  0.24 0.02 0  0.27 0.02 0  0.3 0.02 0  0.33 0.02 0  0.36 0.02 0  0.39 0.02 0  0.42 0.02 0  0.45 0.02 0  0.48 0.02 0  0.51 0.02 0  0.54 0.02 0  0.57 0.02 0  0.6 0.02 0  0.63 0.02 0  0.66 0.02 0  0.6899999999999999 0.02 0  0.72 0.02 0  0.75 0.02 0  0.78 0.02 0  0.8100000000000001 0.02 0  0.84 0.02 0  0.87 0.02 0  0.9 0.02 0  0.93 0.02 0  0.96 0.02 0  0.99 0.02 0  1.02 0.02 0  1.05 0.02 0  1.08 0.02 0  1.11 0.02 0  1.14 0.02 0  1.17 0.02 0  1.2 0.02 0  1.23 0.02 0  1.26 0.02 0  1.29 0.02 0  1.32 0.02 0  1.35 0.02 0  1.38 0.02 0  1.41 0.02 0  1.44 0.02 0  1.47 0.02 0  1.5 0.02 0  0 0.04 0  0.03 0.04 0  0.06 0.04 0  0.09 0.04 0  0.12 0.04 0  0.15 0.04 0  0.18 0.04 0  0.21 0.04 0  0.24 0.04 0  0.27 0.04 0  0.3 0.04 0  0.33 0.04 0  0.36 0.04 0  0.39 0.04 0  0.42 0.04 0  0.45 0.04 0  0.48 0.04 0  0.51 0.04 0  0.54 0.04 0  0.57 0.04 0  0.6 0.04 0  0.63 0.04 0  0.66 0.04 0  0.6899999999999999 0.04 0  0.72 0.04 0  0.75 0.04 0  0.78 0.04 0  0.8100000000000001 0.04 0  0.84 0.04 0  0.87 0.04 0  0.9 0.04 0  0.93 0.04 0  0.96 0.04 0  0.99 0.04 0  1.02 0.04 0  1.05 0.04 0  1.08 0.04 0  1.11 0.04 0  1.14 0.04 0  1.17 0.04 0  1.2 0.04 0  1.23 0.04 0  1.26 0.04 0  1.29 0.04 0  1.32 0.04 0  1.35 0.04 0  1.38 0.04 0  1.41 0.04 0  1.44 0.04 0  1.47 0.04 0  1.5 0.04 0  0 0.06 0  0.03 0.06 0  0.06 0.06 0  0.09 0.06 0  0.12 0.06 0  0.15 0.06 0  0.18 0.06 0  0.21 0.06 0  0.24 0.06 0  0.27 0.06 0  0.3 0.06 0  0.33 0.06 0  0.36 0.06 0  0.39 0.06 0  0.42 0.06 0  0.45 0.06 0  0.48 0.06 0  0.51 0.06 0  0.54 0.06 0  0.57 0.06 0  0.6 0.06 0  0.63 0.06 0  0.66 0.06 0  0.6899999999999999 0.06 0  0.72 0.06 0  0.75 0.06 0  0.78 0.06 0  0.8100000000000001 0.06 0  0.84 0.06 0  0.87 0.06 0  0.9 0.06 0  0.93 0.06 0  0.96 0.06 0  0.99 0.06 0  1.02 0.06 0  1.05 0.06 0  1.08 0.06 0  1.11 0.06 0  1.14 0.06 0  1.17 0.06 0  1.2 0.06 0  1.23 0.06 0  1.26 0.06 0  1.29 0.06 0  1.32 0.06 0  1.35 0.06 0  1.38 0.06 0  1.41 0.06 0  1.44 0.06 0  1.47 0.06 0  1.5 0.06 0  0 0.08 0  0.03 0.08 0  0.06 0.08 0  0.09 0.08 0  0.12 0.08 0  0.15 0.08 0  0.18 0.08 0  0.21 0.08 0  0.24 0.08 0  0.27 0.08 0  0.3 0.08 0  0.33 0.08 0  0.36 0.08 0  0.39 0.08 0  0.42 0.08 0  0.45 0.08 0  0.48 0.08 0  0.51 0.08 0  0.54 0.08 0  0.57 0.08 0  0.6 0.08 0  0.63 0.08 0  0.66 0.08 0  0.6899999999999999 0.08 0  0.72 0.08 0  0.75 0.08 0  0.78 0.08 0  0.8100000000000001 0.08 0  0.84 0.08 0  0.87 0.08 0  0.9 0.08 0  0.93 0.08 0  0.96 0.08 0  0.99 0.08 0  1.02 0.08 0  1.05 0.08 0  1.08 0.08 0  1.11 0.08 0  1.14 0.08 0  1.17 0.08 0  1.2 0.08 0  1.23 0.08 0  1.26 0.08 0  1.29 0.08 0  1.32 0.08 0  1.35 0.08 0  1.38 0.08 0  1.41 0.08 0  1.44 0.08 0  1.47 0.08 0  1.5 0.08 0  0 0.1 0  0.03 0.1 0  0.06 0.1 0  0.09 0.1 0  0.12 0.1 0  0.15 0.1 0  0.18 0.1 0  0.21 0.1 0  0.24 0.1 0  0.27 0.1 0  0.3 0.1 0  0.33 0.1 0  0.36 0.1 0  0.39 0.1 0  0.42 0.1 0  0.45 0.1 0  0.48 0.1 0  0.51 0.1 0  0.54 0.1 0  0.57 0.1 0  0.6 0.1 0  0.63 0.1 0  0.66 0.1 0  0.6899999999999999 0.1 0  0.72 0.1 0  0.75 0.1 0  0.78 0.1 0  0.8100000000000001 0.1 0  0.84 0.1 0  0.87 0.1 0  0.9 0.1 0  0.93 0.1 0  0.96 0.1 0  0.99 0.1 0  1.02 0.1 0  1.05 0.1 0  1.08 0.1 0  1.11 0.1 0  1.14 0.1 0  1.17 0.1 0  1.2 0.1 0  1.23 0.1 0  1.26 0.1 0  1.29 0.1 0  1.32 0.1 0  1.35 0.1 0  1.38 0.1 0  1.41 0.1 0  1.44 0.1 0  1.47 0.1 0  1.5 0.1 0  0 0.12 0  0.03 0.12 0  0.06 0.12 0  0.09 0.12 0  0.12 0.12 0  0.15 0.12 0  0.18 0.12 0  0.21 0.12 0  0.24 0.12 0  0.27 0.12 0  0.3 0.12 0  0.33 0.12 0  0.36 0.12 0  0.39 0.12 0  0.42 0.12 0  0.45 0.12 0  0.48 0.12 0  0.51 0.12 0  0.54 0.12 0  0.57 0.12 0  0.6 0.12 0  0.63 0.12 0  0.66 0.12 0  0.6899999999999999 0.12 0  0.72 0.12 0  0.75 0.12 0  0.78 0.12 0  0.8100000000000001 0.12 0  0.84 0.12 0  0.87 0.12 0  0.9 0.12 0  0.93 0.12 0  0.96 0.12 0  0.99 0.12 0  1.02 0.12 0  1.05 0.12 0  1.08 0.12 0  1.11 0.12 0  1.14 0.12 0  1.17 0.12 0  1.2 0.12 0  1.23 0.12 0  1.26 0.12 0  1.29 0.12 0  1.32 0.12 0  1.35 0.12 0  1.38 0.12 0  1.41 0.12 0  1.44 0.12 0  1.47 0.12 0  1.5 0.12 0  0 0.14 0  0.03 0.14 0  0.06 0.14 0  0.09 0.14 0  0.12 0.14 0  0.15 0.14 0  0.18 0.14 0  0.21 0.14 0  0.24 0.14 0  0.27 0.14 0  0.3 0.14 0  0.33 0.14 0  0.36 0.14 0  0.39 0.14 0  0.42 0.14 0  0.45 0.14 0  0.48 0.14 0  0.51 0.14 0  0.54 0.14 0  0.57 0.14 0  0.6 0.14 0  0.63 0.14 0  0.66 0.14 0  0.6899999999999999 0.14 0  0.72 0.14 0  0.75 0.14 0  0.78 0.14 0  0.8100000000000001 0.14 0  0.84 0.14 0  0.87 0.14 0  0.9 0.14 0  0.93 0.14 0  0.96 0.14 0  0.99 0.14 0  1.02 0.14 0  1.05 0.14 0  1.08 0.14 0  1.11 0.14 0  1.14 0.14 0  1.17 0.14 0  1.2 0.14 0  1.23 0.14 0  1.26 0.14 0  1.29 0.14 0  1.32 0.14 0  1.35 0.14 0  1.38 0.14 0  1.41 0.14 0  1.44 0.14 0  1.47 0.14 0  1.5 0.14 0  0 0.16 0  0.03 0.16 0  0.06 0.16 0  0.09 0.16 0  0.12 0.16 0  0.15 0.16 0  0.18 0.16 0  0.21 0.16 0  0.24 0.16 0  0.27 0.16 0  0.3 0.16 0  0.33 0.16 0  0.36 0.16 0  0.39 0.16 0  0.42 0.16 0  0.45 0.16 0  0.48 0.16 0  0.51 0.16 0  0.54 0.16 0  0.57 0.16 0  0.6 0.16 0  0.63 0.16 0  0.66 0.16 0  0.6899999999999999 0.16 0  0.72 0.16 0  0.75 0.16 0  0.78 0.16 0  0.8100000000000001 0.16 0  0.84 0.16 0  0.87 0.16 0  0.9 0.16 0  0.93 0.16 0  0.96 0.16 0  0.99 0.16 0  1.02 0.16 0  1.05 0.16 0  1.08 0.16 0  1.11 0.16 0  1.14 0.16 0  1.17 0.16 0  1.2 0.16 0  1.23 0.16 0  1.26 0.16 0  1.29 0.16 0  1.32 0.16 0  1.35 0.16 0  1.38 0.16 0  1.41 0.16 0  1.44 0.16 0  1.47 0.16 0  1.5 0.16 0  0 0.18 0  0.03 0.18 0  0.06 0.18 0  0.09 0.18 0  0.12 0.18 0  0.15 0.18 0  0.18 0.18 0  0.21 0.18 0  0.24 0.18 0  0.27 0.18 0  0.3 0.18 0  0.33 0.18 0  0.36 0.18 0  0.39 0.18 0  0.42 0.18 0  0.45 0.18 0  0.48 0.18 0  0.51 0.18 0  0.54 0.18 0  0.57 0.18 0  0.6 0.18 0  0.63 0.18 0  0.66 0.18 0  0.6899999999999999 0.18 0  0.72 0.18 0  0.75 0.18 0  0.78 0.18 0  0.8100000000000001 0.18 0  0.84 0.18 0  0.87 0.18 0  0.9 0.18 0  0.93 0.18 0  0.96 0.18 0  0.99 0.18 0  1.02 0.18 0  1.05 0.18 0  1.08 0.18 0  1.11 0.18 0  1.14 0.18 0  1.17 0.18 0  1.2 0.18 0  1.23 0.18 0  1.26 0.18 0  1.29 0.18 0  1.32 0.18 0  1.35 0.18 0  1.38 0.18 0  1.41 0.18 0  1.44 0.18 0  1.47 0.18 0  1.5 0.18 0  0 0.2 0  0.03 0.2 0  0.06 0.2 0  0.09 0.2 0  0.12 0.2 0  0.15 0.2 0  0.18 0.2 0  0.21 0.2 0  0.24 0.2 0  0.27 0.2 0  0.3 0.2 0  0.33 0.2 0  0.36 0.2 0  0.39 0.2 0  0.42 0.2 0  0.45 0.2 0  0.48 0.2 0  0.51 0.2 0  0.54 0.2 0  0.57 0.2 0  0.6 0.2 0  0.63 0.2 0  0.66 0.2 0  0.6899999999999999 0.2 0  0.72 0.2 0  0.75 0.2 0  0.78 0.2 0  0.8100000000000001 0.2 0  0.84 0.2 0  0.87 0.2 0  0.9 0.2 0  0.93 0.2 0  0.96 0.2 0  0.99 0.2 0  1.02 0.2 0  1.05 0.2 0  1.08 0.2 0  1.11 0.2 0  1.14 0.2 0  1.17 0.2 0  1.2 0.2 0  1.23 0.2 0  1.26 0.2 0  1.29 0.2 0  1.32 0.2 0  1.35 0.2 0  1.38 0.2 0  1.41 0.2 0  1.44 0.2 0  1.47 0.2 0  1.5 0.2 0  0 0.22 0  0.03 0.22 0  0.06 0.22 0  0.09 0.22 0  0.12 0.22 0  0.15 0.22 0  0.18 0.22 0  0.21 0.22 0  0.24 0.22 0  0.27 0.22 0  0.3 0.22 0  0.33 0.22 0  0.36 0.22 0  0.39 0.22 0  0.42 0.22 0  0.45 0.22 0  0.48 0.22 0  0.51 0.22 0  0.54 0.22 0  0.57 0.22 0  0.6 0.22 0  0.63 0.22 0  0.66 0.22 0  0.6899999999999999 0.22 0  0.72 0.22 0  0.75 0.22 0  0.78 0.22 0  0.8100000000000001 0.22 0  0.84 0.22 0  0.87 0.22 0  0.9 0.22 0  0.93 0.22 0  0.96 0.22 0  0.99 0.22 0  1.02 0.22 0  1.05 0.22 0  1.08 0.22 0  1.11 0.22 0  1.14 0.22 0  1.17 0.22 0  1.2 0.22 0  1.23 0.22 0  1.26 0.22 0  1.29 0.22 0  1.32 0.22 0  1.35 0.22 0  1.38 0.22 0  1.41 0.22 0  1.44 0.22 0  1.47 0.22 0  1.5 0.22 0  0 0.24 0  0.03 0.24 0  0.06 0.24 0  0.09 0.24 0  0.12 0.24 0  0.15 0.24 0  0.18 0.24 0  0.21 0.24 0  0.24 0.24 0  0.27 0.24 0  0.3 0.24 0  0.33 0.24 0  0.36 0.24 0  0.39 0.24 0  0.42 0.24 0  0.45 0.24 0  0.48 0.24 0  0.51 0.24 0  0.54 0.24 0  0.57 0.24 0  0.6 0.24 0  0.63 0.24 0  0.66 0.24 0  0.6899999999999999 0.24 0  0.72 0.24 0  0.75 0.24 0  0.78 0.24 0  0.8100000000000001 0.24 0  0.84 0.24 0  0.87 0.24 0  0.9 0.24 0  0.93 0.24 0  0.96 0.24 0  0.99 0.24 0  1.02 0.24 0  1.05 0.24 0  1.08 0.24 0  1.11 0.24 0  1.14 0.24 0  1.17 0.24 0  1.2 0.24 0  1.23 0.24 0  1.26 0.24 0  1.29 0.24 0  1.32 0.24 0  1.35 0.24 0  1.38 0.24 0  1.41 0.24 0  1.44 0.24 0  1.47 0.24 0  1.5 0.24 0  0 0.26 0  0.03 0.26 0  0.06 0.26 0  0.09 0.26 0  0.12 0.26 0  0.15 0.26 0  0.18 0.26 0  0.21 0.26 0  0.24 0.26 0  0.27 0.26 0  0.3 0.26 0  0.33 0.26 0  0.36 0.26 0  0.39 0.26 0  0.42 0.26 0  0.45 0.26 0  0.48 0.26 0  0.51 0.26 0  0.54 0.26 0  0.57 0.26 0  0.6 0.26 0  0.63 0.26 0  0.66 0.26 0  0.6899999999999999 0.26 0  0.72 0.26 0  0.75 0.26 0  0.78 0.26 0  0.8100000000000001 0.26 0  0.84 0.26 0  0.87 0.26 0  0.9 0.26 0  0.93 0.26 0  0.96 0.26 0  0.99 0.26 0  1.02 0.26 0  1.05 0.26 0  1.08 0.26 0  1.11 0.26 0  1.14 0.26 0  1.17 0.26 0  1.2 0.26 0  1.23 0.26 0  1.26 0.26 0  1.29 0.26 0  1.32 0.26 0  1.35 0.26 0  1.38 0.26 0  1.41 0.26 0  1.44 0.26 0  1.47 0.26 0  1.5 0.26 0  0 0.28 0  0.03 0.28 0  0.06 0.28 0  0.09 0.28 0  0.12 0.28 0  0.15 0.28 0  0.18 0.28 0  0.21 0.28 0  0.24 0.28 0  0.27 0.28 0  0.3 0.28 0  0.33 0.28 0  0.36 0.28 0  0.39 0.28 0  0.42 0.28 0  0.45 0.28 0  0.48 0.28 0  0.51 0.28 0  0.54 0.28 0  0.57 0.28 0  0.6 0.28 0  0.63 0.28 0  0.66 0.28 0  0.6899999999999999 0.28 0  0.72 0.28 0  0.75 0.28 0  0.78 0.28 0  0.8100000000000001 0.28 0  0.84 0.28 0  0.87 0.28 0  0.9 0.28 0  0.93 0.28 0  0.96 0.28 0  0.99 0.28 0  1.02 0.28
[...]
<PointData  Scalars="sensitivity"> 
<DataArray  type="Float64"  Name="sensitivity"  format="ascii">-1.2327639045542590e-06  -1.7762291756890257e-05  -7.3935642266518170e-05  -1.8837046621485442e-04  -3.6167256355614647e-04  -5.7184961166400539e-04  -7.8766069507326590e-04  -9.8290057768235213e-04  -1.1423240617944273e-03  -1.2608102543576337e-03  -1.3398372944341209e-03  -1.3842961150036402e-03  -1.4004813342573176e-03  -1.3949240851923361e-03  -1.3737298592839233e-03  -1.3422575049140664e-03  -1.3050100549587987e-03  -1.2656310186506740e-03  -1.2269510130425770e-03  -1.1910685145764275e-03  -1.1594591826638420e-03  -1.1331032788235984e-03  -1.1126146863558598e-03  -1.0983548586158930e-03  -1.0905207219976320e-03  -1.0892030444032924e-03  -1.0944168178386444e-03  -1.1061062149243081e-03  -1.1241247186625585e-03  -1.1481884722682424e-03  -1.1778005224102885e-03  -1.2121473991812475e-03  -1.2499764844995449e-03  -1.2894678735379723e-03  -1.3281146311774786e-03  -1.3626202507757942e-03  -1.3888209764963127e-03  -1.4016588619213777e-03  -1.3952645404007010e-03  -1.3632398051404864e-03  -1.2991665851161192e-03  -1.1974921913380020e-03  -1.0550873990255911e-03  -8.7407716991622455e-04  -6.6529788982002866e-04  -4.4992967071056403e-04  -2.5732033028996059e-04  -1.1589568416709142e-04  -3.6552290109596595e-05  -5.1976034783098448e-06  -4.5656340554056193e-08  -9.0224691578681345e-06  -7.4256738070843471e-05  -2.9601522708916459e-04  -7.7874908826177931e-04  -1.5431658070082382e-03  -2.5025877207802060e-03  -3.5151347031026534e-03  -4.4518289018769391e-03  -5.2315380487762825e-03  -5.8222914955426298e-03  -6.2260124562294782e-03  -6.4629449500945768e-03  -6.5614873977033247e-03  -6.5521600798899432e-03  -6.4640523774240422e-03  -6.3230116212095143e-03  -6.1509672284771853e-03  -5.9658291371831413e-03  -5.7816485826572526e-03  -5.6089485406575317e-03  -5.4552028855082372e-03  -5.3254227586060302e-03  -5.2227733326630802e-03  -5.1491354444445818e-03  -5.1055504615683880e-03  -5.0925248724113274e-03  -5.1101999794644498e-03  -5.1584007230261958e-03  -5.2365695617620093e-03  -5.3435774328502899e-03  -5.4773976645099334e-03  -5.6346427592372230e-03  -5.8099974118684056e-03  -5.9956138966879473e-03  -6.1805429894623868e-03  -6.3502407876008440e-03  -6.4861786396383037e-03  -6.5656439235303888e-03  -6.5620206090842605e-03  -6.4458765975934978e-03  -6.1870428328559164e-03  -5.7583079259718615e-03  -5.1414967438094313e-03  -4.3387392558882649e-03  -3.3891340135303537e-03  -2.3793781420535540e-03  -1.4373996824582804e-03  -7.0247076461178400e-04  -2.5593897629005036e-04  -6.0791376401748814e-05  -3.4225363911595647e-06  -2.5936998213642238e-05  -1.4417837893229238e-04  -4.3147148386986925e-04  -1.0421775557921417e-03  -1.9809294476034580e-03  -3.1268251705127738e-03  -4.3131783809186195e-03  -5.3955315425713267e-03  -6.2865776685739894e-03  -6.9554728914751635e-03  -7.4074963332593476e-03  -7.6666802183854004e-03  -7.7659633217378185e-03  -7.7408328372863449e-03  -7.6251042344267729e-03  -7.4488098678860805e-03  -7.2374947979279179e-03  -7.0121047980830145e-03  -6.7891049101270863e-03  -6.5807926528024105e-03  -6.3958255208858665e-03  -6.2399196194288511e-03  -6.1166106450189633e-03  -6.0279507499865354e-03  -5.9750524979227419e-03  -5.9584520960242818e-03  -5.9783076699665219e-03  -6.0344583284184282e-03  -6.1263545823395512e-03  -6.2528466391282914e-03  -6.4118024842995348e-03  -6.5995456015823482e-03  -6.8101555753220834e-03  -7.0347363287306631e-03  -7.2607542809246953e-03  -7.4714935444691816e-03  -7.6456452521455488e-03  -7.7570210415323308e-03  -7.7748154802524715e-03  -7.6647049191529721e-03  -7.3917809282100866e-03  -6.9243547812339983e-03  -6.2391760973581952e-03  -5.3312673147584803e-03  -4.2382706064654748e-03  -3.0544496234068018e-03  -1.9162271936883444e-03  -9.8566552349383849e-04  -3.9318363224841082e-04  -1.2797256375835661e-04  -1.5668026665946049e-05  -4.2213812287064465e-05  -2.4344365145533879e-04  -6.4107730756059417e-04  -1.3935714567751487e-03  -2.4393109303839128e-03  -3.6277459624060818e-03  -4.8077536994016803e-03  -5.8497484509737845e-03  -6.6836841098361632e-03  -7.2952027274540265e-03  -7.6958164919783993e-03  -7.9096980540642719e-03  -7.9693425161521132e-03  -7.9099600113663304e-03  -7.7648120244953912e-03  -7.5632646847060073e-03  -7.3304009971010388e-03  -7.0869422007128428e-03  -6.8492096956987271e-03  -6.6292870264814483e-03  -6.4354883836030023e-03  -6.2730939992678026e-03  -6.1451995038671117e-03  -6.0534930395231053e-03  -5.9988367581759261e-03  -5.9816296792757706e-03  -6.0019924037656653e-03  -6.0598202387108033e-03  -6.1547225729460435e-03  -6.2858261590717284e-03  -6.4513883582125843e-03  -6.6481844553592248e-03  -6.8707208863458581e-03  -7.1104401207132380e-03  -7.3550586179539313e-03  -7.5881573829102321e-03  -7.7888713534837572e-03  -7.9313860155479279e-03  -7.9850714179472964e-03  -7.9157415091642234e-03  -7.6903909995659041e-03  -7.2770134986380472e-03  -6.6518803629214383e-03  -5.7975734086739899e-03  -4.7387999566818294e-03  -3.5612381273437991e-03  -2.3768714193013029e-03  -1.3225093640826452e-03  -5.7208092222058775e-04  -2.0673822858106292e-04  -3.2663698959701548e-05  -3.9234104816452512e-05  -3.6657138128015144e-04  -1.0567745978066674e-03  -2.1046962076722024e-03  -3.2721254083733905e-03  -4.4390793629666917e-03  -5.5476471106052205e-03  -6.4785848604891972e-03  -7.1933111821669829e-03  -7.7029247078639141e-03  -8.0189619299980853e-03  -8.1607595652096569e-03  -8.1593134584885679e-03  -8.0491722964327710e-03  -7.8620805438414099e-03  -7.6257168836512575e-03  -7.3640398955122912e-03  -7.0971808055962076e-03  -6.8410595018957099e-03  -6.6072732478598909e-03  -6.4034651855929183e-03  -6.2341248992588182e-03  -6.1015909850300918e-03  -6.0069567394693034e-03  -5.9506952826017274e-03  -5.9330006515375157e-03  -5.9539364105668452e-03  -6.0134742309033455e-03  -6.1114518879137143e-03  -6.2474165100637790e-03  -6.4202532704813759e-03  -6.6274997209462829e-03  -6.8644066697143057e-03  -7.1230182378667706e-03  -7.3915553941401348e-03  -7.6542658064835799e-03  -7.8911134233277287e-03  -8.0774396331501699e-03  -8.1837529775640704e-03  -8.1768517132129216e-03  -8.0245704097110012e-03  -7.6946748710616979e-03  -7.1816396615729050e-03  -6.4519313670366469e-03  -5.4922462056375600e-03  -4.3889063984225785e-03  -3.2420003029314318e-03  -2.0453258676557916e-03  -9.5220131167641196e-04  -2.7364315250731164e-04  -3.8651432414274831e-05  -4.3643396143354741e-05  -6.9205757582606006e-04  -2.6404022956719210e-03  -5.0088261772600166e-03  -6.1271142229856919e-03  -6.5416328273252573e-03  -6.9604115840176048e-03  -7.4361407711340064e-03  -7.8865997820827989e-03  -8.2382098002126442e-03  -8.4391006174544519e-03  -8.4835701935045849e-03  -8.4002179752342542e-03  -8.2231072317287355e-03  -7.9811814085267649e-03  -7.6992725721083599e-03  -7.3998048957975848e-03  -7.1023042258972335e-03  -6.8222955993812746e-03  -6.5707719684598032e-03  -6.3544239225160502e-03  -6.1765709027788709e-03  -6.0384449683636874e-03  -5.9403105530909418e-03  -5.8821336767355742e-03  -5.8638576054100243e-03  -5.8854780671323713e-03  -5.9470549071574978e-03  -6.0487029652125570e-03  -6.1905197867549765e-03  -6.3722786120556166e-03  -6.5926386613499172e-03  -6.8479440631911102e-03  -7.1310256212169547e-03  -7.4307202533993059e-03  -7.7318134651874976e-03  -8.0155890618794617e-03  -8.2607425640722539e-03  -8.4375286019869600e-03  -8.5121557991251970e-03  -8.4527413363046453e-03  -8.2653791490717044e-03  -7.9778887471859943e-03  -7.6308611726975282e-03  -7.2482440081602529e-03  -6.9681982305590832e-03  -6.4475946431949401e-03  -4.4310219962857816e-03  -1.8930030485245105e-03  -3.8355863840047646e-04  -2.5747988523571172e-05  -5.3900452994727990e-04  -3.0234377614805604e-03  -1.0738439209001608e-02  -1.9398919110419289e-02  -2.2189835462106573e-02  -1.8876718609978818e-02  -1.3910164554099430e-02  -1.0323035363558381e-02  -9.0797209436561561e-03  -8.9626478029758341e-03  -8.9710296563179394e-03  -8.8820749419180646e-03  -8.6935778607378743e-03  -8.4335540630816313e-03  -8.1245351626352859e-03  -7.7864224100123534e-03  -7.4399394440940953e-03  -7.1043122961406821e-03  -6.7948441258821272e-03  -6.5218686432050275e-03  -6.2907782539095179e-03  -6.1031967495422060e-03  -5.9587875988208073e-03  -5.8567272957300636e-03  -5.7963859638139542e-03  -5.7774424857077507e-03  -5.7998254777945762e-03  -5.8636814208680417e-03  -5.9694141877542350e-03  -6.1177720705697424e-03  -6.3097271912605874e-03  -6.5455719183454813e-03  -6.8232407572466122e-03  -7.1364396432332224e-03  -7.4745961837129208e-03  -7.8226151371704813e-03  -8.1651712675969556e-03  -8.4840075610140373e-03  -8.7460348575488615e-03  -8.9366295892528043e-03  -9.0324369185409807e-03  -9.1669311096065926e-03  -9.6505762312954612e-03  -1.1236292730705880e-02  -1.4058979944184986e-02  -1.8274451537237672e-02  -2.2193334862899219e-02  -2.0171882086116023e-02  -1.1887112794685574e-02  -2.4528735915266722e-03  -9.1185202331355678e-05  -1.7370513721947890e-03  -1.8456037814772727e-02  -3.1296643945338418e-02  -3.0739051506350267e-02  -3.0456568288820120e-02  -3.0766487596075986e-02  -3.0521228558616911e-02  -2.4782274477457220e-02  -1.4984939314531988e-02  -1.0756819761797055e-02  -9.7439998629677092e-03  -9.3726975018083997e-03  -9.0370496863092648e-03  -8.6777701566671406e-03  -8.2905000845454237e-03  -7.8854917750383509e-03  -7.4823641725098736e-03  -7.1008479811780316e-03  -6.7563458710621343e-03  -6.4585865585420187e-03  -6.2112017266994926e-03  -6.0133155648812069e-03  -5.8623732113397440e-03  -5.7561950114781114e-03  -5.6935402689620770e-03  -5.6738678541384318e-03  -5.6970579227297010e-03  -5.7633210139089461e-03  -5.8732958204305106e-03  -6.0283971911344880e-03  -6.2311578584084270e-03  -6.4842794704307672e-03  -6.7879996981019498e-03  -7.1370290251904882e-03  -7.5213630462687168e-03  -7.9254022145597638e-03  -8.3368547122161119e-03  -8.7394155823943467e-03  -9.1341931958368594e-03  -9.5301942532299566e-03  -1.0041073642838405e-02  -1.1710920318730148e-02  -1.5446053090753434e-02  -2.3519896436917292e-02  -2.9899570571488579e-02  -3.0690911212013557e-02  -3.0822946004369987e-02  -3.0996286775709730e-02  -3.0701446341429441e-02  -1.8531942448275527e-02  -1.5448082875264980e-03  -9.1784035369178157e-03  -3.1353634855641008e-02  -3.1621080325234405e-02  -3.1591187982875225e-02  -3.1484224295708116e-02  -3.1504784791689201e-02  -3.1398192139032118e-02  -3.0628422896318674e-02  -3.0298805383325279e-02  -2.0197450672888570e-02  -1.2514083898478200e-02  -1.0192009578899808e-02  -9.4581426000328109e-03  -8.9573025349219074e-03  -8.4789901568504203e-03  -7.9948562105631935e-03  -7.5244833027433393e-03  -7.0887985213538623e-03  -6.7035216110622369e-03  -6.3781561698759192e-03  -6.1139109795526250e-03  -5.9060597994914860e-03  -5.7488747610362064e-03  -5.6386115019777579e-03  -5.5735702238321689e-03  -5.5531262532955272e-03  -5.5771455055860855e-03  -5.6458569399032224e-03  -5.7599908846185733e-03  -5.9214180851115232e-03  -6.1345704757287192e-03  -6.4058756674267477e-03  -6.7391579840024515e-03  -7.1308171688330172e-03  -7.5689100039762237e-03  -8.0388459282247395e-03  -8.5255953511262795e-03  -9.0552698300953288e-03  -9.7122316863731753e-03  -1.0795722348488903e-02  -1.3385227642570573e-02  -1.9767479121169471e-02  -2.9544285062755419e-02  -3.0861150680219860e-02  -3.1436595153364229e-02  -3.1553889069802929e-02  -3.1512935755838460e-02  -3.1534494048338260e-02  -3.1555669943088956e-02  -3.1523102809604533e-02  -6.9746356438855029e-03  -1.5679561606438377e-02  -3.1417650131538973e-02  -3.1453222157695693e-02  -3.1475038279466766e-02  -3.1458298446450081e-02  -3.1532292796534474e-02  -3.1617218797080293e-02  -3.1486856484114936e-02  -3.0954616711160829e-02  -3.1389102057943818e-02  -2.5155189402681001e-02  -1.4323186590168673e-02  -1.0422669667713234e-02  -9.3442128709988297e-03  -8.7047060582934165e-03  -8.1153428446687943e-03  -7.5641508820700329e-03  -7.0648553454074892e-03  -6.6323007384501732e-03  -6.2771379076390502e-03  -5.9970082190300049e-03  -5.7808338265753602e-03  -5.6182775814224047e-03  -5.5040861126673347e-03  -5.4365951133869984e-03  -5.4153430375495134e-03  -5.4402080213076512e-03  -5.5114128904392981e-03  -5.6295279376527337e-03  -5.7961642550601452e-03  -6.0177852398777491e-03  -6.3069882616345998e-03  -6.6732132527191589e-03  -7.1162761578117397e-03  -7.6142402611272600e-03  -8.1808104293198056e-03  -8.7647720551581668e-03  -9.5979883344958269e-03  -1.1388128443172277e-02  -1.5075470414482319e-02  -2.3754899048116597e-02  -3.0685074521206512e-02  -3.1139203283972121e-02  -3.1522014637881013e-02  -3.1493060977570028e-02  -3.1459278336134239e-02  -3.1456230990049336e-02  -3.1464493417982256e-02  -3.1454415298308877e-02  -3.1411690224753250e-02  -1.5698534199851066e-02  -1.8482448643155860e-02  -3.2027332205337634e-02  -3.1457179014031014e-02  -3.1429206241179029e-02  -3.1448492902111713e-02  -3.1410055712887748e-02  -3.1443698242095169e-02  -3.1545818094459444e-02  -3.1560200627641442e-02  -3.1309865306578887e-02  -3.1063676219499899e-02  -2.8639833702530572e-02  -1.6517165231859105e-02  -1.0864818518478779e-02  -9.1487526426737593e-03  -8.2812876124552393e-03  -7.6098696127941800e-03  -7.0297937909566668e-03  -6.5394047862525548e-03  -6.1524755014409618e-03  -5.8596621234548920e-03  -5.6384914587162141e-03  -5.4717893402912946e-03  -5.3536328854886656e-03  -5.2835185583732592e-03  -5.2614293971134287e-03  -5.2872167274063530e-03  -5.3611423175427501e-03  -5.4833084771397844e-03  -5.6537949327426125e-03  -5.8798687693419893e-03  -6.1851301122265671e-03  -6.5890837936275256e-03  -7.1043302214212145e-03  -7.6867580950968871e-03  -8.4467982892645291e-03  -9.4099667867377276e-03  -1.1938520785185602e-02  -1.7051977340945802e-02  -2.7381550605154903e-02  -3.0854270087523603e-02  -3.1498267381375733e-02  -3.1498021204147186e-02  -3.1407686945924378e-02  -3.1391751814573203e-02  -3.1417386954636292e-02  -3.1406938190540655e-02  -3.1409061488076595e-02  -3.1485131011533968e-02  -3.2325798902375982e-02  -1.6894854472487442e-02  -2.8590943041717842e-02  -4.6336827092180968e-02  -3.5827411883219216e-02  -3.1595430947054172e-02  -3.1490274687976154e-02  -3.1447130526414901e-02  -3.1391678402242627e-02  -3.1397537633305841e-02  -3.1488115424276306e-02  -3.1585614109542359e-02  -3.1412983364297799e-02  -3.0684478725878497e-02  -2.9846214760539752e-02  -2.0468872904820065e-02  -1.2260172948266092e-02  -9.0652286216468449e-03  -7.8411273313749637e-03  -7.0524997877308010e-03  -6.4556427147012445e-03  -6.0232232283799177e-03  -5.7183861781361584e-03  -5.4944317845751428e-03  -5.3225991263830168e-03  -5.1986808842533760e-03  -5.1251377518284260e-03  -5.1022188671291857e-03  -5.1294777334647849e-03  -5.2074489901758848e-03  -5.3366166729805504e-03  -5.5143528673386099e-03  -5.7421274260956740e-03  -6.0695717467601669e-03  -6.5390312580506458e-03  -7.2086207990744106e-03  -8.0885604226444922e-03  -9.9196015472673479e-03  -1.2972466846597641e-02  -1.9819416174044285e-02  -2.9992173309103570e-02  -3.0907961388734636e-02  -3.1592542494532840e-02  -3.1481966884202323e-02  -3.1387547092106484e-02  -3.1348985791468102e-02  -3.1387725335144695e-02  -3.1411167750973856e-02  -3.1458126022936871e-02  -3.1709579389344190e-02  -3.7829658563242441e-02  -4.8079652752905953e-02  -2.5257455446168840e-02  -3.5118311810652177e-02  -6.0598387058098772e-02  -4.6090429091501017e-02  -3.5456060669192879e-02  -3.1616522256764583e-02  -3.1520938272254898e-02  -3.1457419247659116e-02  -3.1391703033615527e-02  -3.1368686754656580e-02  -3.1438009351808474e-02  -3.1556639031064995e-02  -3.1417257453310886e-02  -3.0841693197779976e-02  -3.0973405116900062e-02  -2.7041556101493756e-02  -1.6892239822533680e-02  -1.1081640912411603e-02  -8.3574478264639186e-03  -7.0454593532952685e-03  -6.3152187585136703e-03  -5.8760134985632716e-03  -5.5844166190204374e-03  -5.3673611182723209e-03  -5.2151682131850504e-03  -5.1285895012225186e-03  -5.1036489920942554e-03  -5.1384059598382961e-03  -5.2356993607853954e-03  -5.4042819651576503e-03  -5.6471748056292860e-03  -5.9639109440243702e-03  -6.4927488365100275e-03  -7.4068759160654200e-03  -9.1235994909062215e-03  -1.1915335204661962e-02  -1.6738218883434835e-02  -2.5724317442635664e-02  -2.9439632752634181e-02  -3.1021535640260004e-02  -3.1534327310881190e-02  -3.1423338600592959e-02  -3.1371017685245431e-02  -3.1330565173696166e-02  -3.1368056478947998e-02  -3.1439702976148023e-02  -3.1474414533022327e-02  -3.1709801007655719e-02  -3.6481715171544811e-02  -4.6546324580098837e-02  -6.0562653886116175e-02  -3.3711021654495563e-02  -3.4052421779908977e-02  -6.2939840634004623e-02  -5.0481955860105961e-02  -3.9920962276376301e-02  -3.3073718740380620e-02  -3.1588283826198618e-02  -3.1549109439417251e-02  -3.1467493946937847e-02  -3.1388486273594189e-02  -3.1345886837753516e-02  -3.1389460789289267e-02  -3.1502978973094752e-02  -3.1507498560233139e-02  -3.1260505818512599e-02  -3.0852255181034533e-02  -3.1091156792712599e-02  -2.7595721602790470e-02  -2.0431518037997375e-02  -1.5381452597918658e-02  -1.2443321219230641e-02  -1.0751524059789063e-02  -9.6744423425796124e-03  -8.9562113906261603e-03  -8.5233597412565799e-03  -8.3027867976741866e-03  -8.2462053523998224e-03  -8.3400690129232305e-03  -8.5992285112234477e-03  -9.0774361499074870e-03  -9.8169547108322916e-03  -1.0815651240508106e-02  -1.2527760639453971e-02  -1.5345214771432674e-02  -1.9912739687001565e-02  -2.6897795223709203e-02  -3.0857659895118746e-02  -3.0786804444980657e-02  -3.1393350151905371e-02  -3.1353944317085415e-02  -3.1373890309808826e-02  -3.1330911356170742e-02  -3.1317072104509305e-02  -3.1363712045770611e-02  -3.1445439467641209e-02  -3.1494726413203653e-02  -3.1594273466538460e-02  -3.3521413708662094e-02  -3.9868489750280643e-02  -4.9844019637666576e-02  -6.2175670191475657e-02  -3.5216655808670852e-02  -2.5866749773487147e-02  -5.2524891261958306e-02  -4.5928815318190368e-02  -3.9560066805642100e-02  -3.4435992547314193e-02  -3.1820720840259657e-02  -3.1618305877958497e-02  -3.1562362831631323e-02  -3.1472567547099928e-02  -3.1385183588622932e-02  -3.1329094409781148e-02  -3.1352739816739097e-02  -3.1465270218282215e-02  -3.1582840316144098e-02  -3.1499779877430599e-02  -3.1220245072230087e-02  -3.0737225450429544e-02  -3.0769334038964685e-02  -3.1291865320873496e-02  -3.0488032559156164e-02  -2.9976717783450728e-02  -2.9563312303317879e-02  -2.8772483559357524e-02  -2.8094739532127825e-02  -2.7704740860578711e-02  -2.7574383972645902e-02  -2.7687409225606127e-02  -2.8041171957732307e-02  -2.8666647201214999e-02  -2.9510006214550282e-02  -3.0062122557687511e-02  -3.0250072002171578e-02  -3.1183245687398099e-02  -3.1102952069701550e-02  -3.0547601611908313e-02  -3.1356825684506082e-02  -3.1607515016506306e-02  -3.1455659878676351e-02  -3.1374552779157738e-02  -3.1298229345687531e-02  -3.1304084451595153e-02  -3.1362603634441488e-02  -3.1445380572479843e-02  -3.1520804515587947e-02  -3.1552726811025722e-02  -3.1868598086934194e-02  -3.4295470300525453e-02  -3.8822370951811062e-02  -4.4787461334723361e-02  -5.1248860606619540e-02  -2.9099713695545183e-02  -1.6902776907025130e-02  -3.6308809165674340e-02  -3.5981364916664441e-02  -3.4810295415564504e-02  -3.3222125500320568e-02  -3.1969119170474597e-02  -3.1678260322206511e-02  -3.1639241367380222e-02  -3.1566473242595809e-02  -3.1475654084550740e-02  -3.1385270127176006e-02  -3.1327293882785573e-02  -3.1335662559436005e-02  -3.1416987224515816e-02  -3.1527144293556325e-02  -3.1588433893519077e-02  -3.1539873400364571e-02  -3.1514514675891073e-02  -3.1587249143865327e-02  -3.1450738399235241e-02  -3.1233854737315117e-02  -3.1192815225899628e-02  -3.1155380195487373e-02  -3.1130073428688780e-02  -3.1123338582307019e-02  -3.1111791778613309e-02  -3.1109606919127248e-02  -3.1102661205590593e-02  -3.1097906707360245e-02  -3.1158906624568737e-02  -3.1272453623873084e-02  -