<?xml version="1.0"?>
<VTKFile type="UnstructuredGrid"  version="0.1"  >
<UnstructuredGrid>
<Piece  NumberOfPoints="2601" NumberOfCells="5000">
<Points>
<DataArray  type="Float64"  NumberOfComponents="3"  format="ascii">0 0 0  0.03 0 0  0.06 0 0  0.09 0 0  0.12 0 0  0.15 0 0  0.18 0 0  0.21 0 0  0.24 0 0  0.27 0 0  0.3 0 0  0.33 0 0  0.36 0 0  0.39 0 0  0.42 0 0  0.45 0 0  0.48 0 0  0.51 0 0  0.54 0 0  0.57 0 0  0.6 0 0  0.63 0 0  0.66 0 0  0.6899999999999999 0 0  0.72 0 0  0.75 0 0  0.78 0 0  0.8100000000000001 0 0  0.84 0 0  0.87 0 0  0.9 0 0  0.93 0 0  0.96 0 0  0.99 0 0  1.02 0 0  1.05 0 0  1.08 0 0  1.11 0 0  1.14 0 0  1.17 0 0  1.2 0 0  1.23 0 0  1.26 0 0  1.29 0 0  1.32 0 0  1.35 0 0  1.38 0 0  1.41 0 0  1.44 0 0  1.47 0 0  1.5 0 0  0 0.02 0  0.03 0.02 0  0.06 0.02 0  0.09 0.02 0  0.12 0.02 0  0.15 0.02 0  0.18 0.02 0  0.21 0.02 0  0.24 0.02 0  0.27 0.02 0  0.3 0.02 0  0.33 0.02 0  0.36 0.02 0  0.39 0.02 0  0.42 0.02 0  0.45 0.02 0  0.48 0.02 0  0.51 0.02 0  0.54 0.02 0  0.57 0.02 0  0.6 0.02 0  0.63 0.02 0  0.66 0.02 0  0.6899999999999999 0.02 0  0.72 0.02 0  0.75 0.02 0  0.78 0.02 0  0.8100000000000001 0.02 0  0.84 0.02 0  0.87 0.02 0  0.9 0.02 0  0.93 0.02 0  0.96 0.02 0  0.99 0.02 0  1.02 0.02 0  1.05 0.02 0  1.08 0.02 0  1.11 0.02 0  1.14 0.02 0  1.17 0.02 0  1.2 0.02 0  1.23 0.02 0  1.26 0.02 0  1.29 0.02 0  1.32 0.02 0  1.35 0.02 0  1.38 0.02 0  1.41 0.02 0  1.44 0.02 0  1.47 0.02 0  1.5 0.02 0  0 0.04 0  0.03 0.04 0  0.06 0.04 0  0.09 0.04 0  0.12 0.04 0  0.15 0.04 0  0.18 0.04 0  0.21 0.04 0  0.24 0.04 0  0.27 0.04 0  0.3 0.04 0  0.33 0.04 0  0.36 0.04 0  0.39 0.04 0  0.42 0.04 0  0.45 0.04 0  0.48 0.04 0  0.51 0.04 0  0.54 0.04 0  0.57 0.04 0  0.6 0.04 0  0.63 0.04 0  0.66 0.04 0  0.6899999999999999 0.04 0  0.72 0.04 0  0.75 0.04 0  0.78 0.04 0  0.8100000000000001 0.04 0  0.84 0.04 0  0.87 0.04 0  0.9 0.04 0  0.93 0.04 0  0.96 0.04 0  0.99 0.04 0  1.02 0.04 0  1.05 0.04 0  1.08 0.04 0  1.11 0.04 0  1.14 0.04 0  1.17 0.04 0  1.2 0.04 0  1.23 0.04 0  1.26 0.04 0  1.29 0.04 0  1.32 0.04 0  1.35 0.04 0  1.38 0.04 0  1.41 0.04 0  1.44 0.04 0  1.47 0.04 0  1.5 0.04 0  0 0.06 0  0.03 0.06 0  0.06 0.06 0  0.09 0.06 0  0.12 0.06 0  0.15 0.06 0  0.18 0.06 0  0.21 0.06 0  0.24 0.06 0  0.27 0.06 0  0.3 0.06 0  0.33 0.06 0  0.36 0.06 0  0.39 0.06 0  0.42 0.06 0  0.45 0.06 0  0.48 0.06 0  0.51 0.06 0  0.54 0.06 0  0.57 0.06 0  0.6 0.06 0  0.63 0.06 0  0.66 0.06 0  0.6899999999999999 0.06 0  0.72 0.06 0  0.75 0.06 0  0.78 0.06 0  0.8100000000000001 0.06 0  0.84 0.06 0  0.87 0.06 0  0.9 0.06 0  0.93 0.06 0  0.96 0.06 0  0.99 0.06 0  1.02 0.06 0  1.05 0.06 0  1.08 0.06 0  1.11 0.06 0  1.14 0.06 0  1.17 0.06 0  1.2 0.06 0  1.23 0.06 0  1.26 0.06 0  1.29 0.06 0  1.32 0.06 0  1.35 0.06 0  1.38 0.06 0  1.41 0.06 0  1.44 0.06 0  1.47 0.06 0  1.5 0.06 0  0 0.08 0  0.03 0.08 0  0.06 0.08 0  0.09 0.08 0  0.12 0.08 0  0.15 0.08 0  0.18 0.08 0  0.21 0.08 0  0.24 0.08 0  0.27 0.08 0  0.3 0.08 0  0.33 0.08 0  0.36 0.08 0  0.39 0.08 0  0.42 0.08 0  0.45 0.08 0  0.48 0.08 0  0.51 0.08 0  0.54 0.08 0  0.57 0.08 0  0.6 0.08 0  0.63 0.08 0  0.66 0.08 0  0.6899999999999999 0.08 0  0.72 0.08 0  0.75 0.08 0  0.78 0.08 0  0.8100000000000001 0.08 0  0.84 0.08 0  0.87 0.08 0  0.9 0.08 0  0.93 0.08 0  0.96 0.08 0  0.99 0.08 0  1.02 0.08 0  1.05 0.08 0  1.08 0.08 0  1.11 0.08 0  1.14 0.08 0  1.17 0.08 0  1.2 0.08 0  1.23 0.08 0  1.26 0.08 0  1.29 0.08 0  1.32 0.08 0  1.35 0.08 0  1.38 0.08 0  1.41 0.08 0  1.44 0.08 0  1.47 0.08 0  1.5 0.08 0  0 0.1 0  0.03 0.1 0  0.06 0.1 0  0.09 0.1 0  0.12 0.1 0  0.15 0.1 0  0.18 0.1 0  0.21 0.1 0  0.24 0.1 0  0.27 0.1 0  0.3 0.1 0  0.33 0.1 0  0.36 0.1 0  0.39 0.1 0  0.42 0.1 0  0.45 0.1 0  0.48 0.1 0  0.51 0.1 0  0.54 0.1 0  0.57 0.1 0  0.6 0.1 0  0.63 0.1 0  0.66 0.1 0  0.6899999999999999 0.1 0  0.72 0.1 0  0.75 0.1 0  0.78 0.1 0  0.8100000000000001 0.1 0  0.84 0.1 0  0.87 0.1 0  0.9 0.1 0  0.93 0.1 0  0.96 0.1 0  0.99 0.1 0  1.02 0.1 0  1.05 0.1 0  1.08 0.1 0  1.11 0.1 0  1.14 0.1 0  1.17 0.1 0  1.2 0.1 0  1.23 0.1 0  1.26 0.1 0  1.29 0.1 0  1.32 0.1 0  1.35 0.1 0  1.38 0.1 0  1.41 0.1 0  1.44 0.1 0  1.47 0.1 0  1.5 0.1 0  0 0.12 0  0.03 0.12 0  0.06 0.12 0  0.09 0.12 0  0.12 0.12 0  0.15 0.12 0  0.18 0.12 0  0.21 0.12 0  0.24 0.12 0  0.27 0.12 0  0.3 0.12 0  0.33 0.12 0  0.36 0.12 0  0.39 0.12 0  0.42 0.12 0  0.45 0.12 0  0.48 0.12 0  0.51 0.12 0  0.54 0.12 0  0.57 0.12 0  0.6 0.12 0  0.63 0.12 0  0.66 0.12 0  0.6899999999999999 0.12 0  0.72 0.12 0  0.75 0.12 0  0.78 0.12 0  0.8100000000000001 0.12 0  0.84 0.12 0  0.87 0.12 0  0.9 0.12 0  0.93 0.12 0  0.96 0.12 0  0.99 0.12 0  1.02 0.12 0  1.05 0.12 0  1.08 0.12 0  1.11 0.12 0  1.14 0.12 0  1.17 0.12 0  1.2 0.12 0  1.23 0.12 0  1.26 0.12 0  1.29 0.12 0  1.32 0.12 0  1.35 0.12 0  1.38 0.12 0  1.41 0.12 0  1.44 0.12 0  1.47 0.12 0  1.5 0.12 0  0 0.14 0  0.03 0.14 0  0.06 0.14 0  0.09 0.14 0  0.12 0.14 0  0.15 0.14 0  0.18 0.14 0  0.21 0.14 0  0.24 0.14 0  0.27 0.14 0  0.3 0.14 0  0.33 0.14 0  0.36 0.14 0  0.39 0.14 0  0.42 0.14 0  0.45 0.14 0  0.48 0.14 0  0.51 0.14 0  0.54 0.14 0  0.57 0.14 0  0.6 0.14 0  0.63 0.14 0  0.66 0.14 0  0.6899999999999999 0.14 0  0.72 0.14 0  0.75 0.14 0  0.78 0.14 0  0.8100000000000001 0.14 0  0.84 0.14 0  0.87 0.14 0  0.9 0.14 0  0.93 0.14 0  0.96 0.14 0  0.99 0.14 0  1.02 0.14 0  1.05 0.14 0  1.08 0.14 0  1.11 0.14 0  1.14 0.14 0  1.17 0.14 0  1.2 0.14 0  1.23 0.14 0  1.26 0.14 0  1.29 0.14 0  1.32 0.14 0  1.35 0.14 0  1.38 0.14 0  1.41 0.14 0  1.44 0.14 0  1.47 0.14 0  1.5 0.14 0  0 0.16 0  0.03 0.16 0  0.06 0.16 0  0.09 0.16 0  0.12 0.16 0  0.15 0.16 0  0.18 0.16 0  0.21 0.16 0  0.24 0.16 0  0.27 0.16 0  0.3 0.16 0  0.33 0.16 0  0.36 0.16 0  0.39 0.16 0  0.42 0.16 0  0.45 0.16 0  0.48 0.16 0  0.51 0.16 0  0.54 0.16 0  0.57 0.16 0  0.6 0.16 0  0.63 0.16 0  0.66 0.16 0  0.6899999999999999 0.16 0  0.72 0.16 0  0.75 0.16 0  0.78 0.16 0  0.8100000000000001 0.16 0  0.84 0.16 0  0.87 0.16 0  0.9 0.16 0  0.93 0.16 0  0.96 0.16 0  0.99 0.16 0  1.02 0.16 0  1.05 0.16 0  1.08 0.16 0  1.11 0.16 0  1.14 0.16 0  1.17 0.16 0  1.2 0.16 0  1.23 0.16 0  1.26 0.16 0  1.29 0.16 0  1.32 0.16 0  1.35 0.16 0  1.38 0.16 0  1.41 0.16 0  1.44 0.16 0  1.47 0.16 0  1.5 0.16 0  0 0.18 0  0.03 0.18 0  0.06 0.18 0  0.09 0.18 0  0.12 0.18 0  0.15 0.18 0  0.18 0.18 0  0.21 0.18 0  0.24 0.18 0  0.27 0.18 0  0.3 0.18 0  0.33 0.18 0  0.36 0.18 0  0.39 0.18 0  0.42 0.18 0  0.45 0.18 0  0.48 0.18 0  0.51 0.18 0  0.54 0.18 0  0.57 0.18 0  0.6 0.18 0  0.63 0.18 0  0.66 0.18 0  0.6899999999999999 0.18 0  0.72 0.18 0  0.75 0.18 0  0.78 0.18 0  0.8100000000000001 0.18 0  0.84 0.18 0  0.87 0.18 0  0.9 0.18 0  0.93 0.18 0  0.96 0.18 0  0.99 0.18 0  1.02 0.18 0  1.05 0.18 0  1.08 0.18 0  1.11 0.18 0  1.14 0.18 0  1.17 0.18 0  1.2 0.18 0  1.23 0.18 0  1.26 0.18 0  1.29 0.18 0  1.32 0.18 0  1.35 0.18 0  1.38 0.18 0  1.41 0.18 0  1.44 0.18 0  1.47 0.18 0  1.5 0.18 0  0 0.2 0  0.03 0.2 0  0.06 0.2 0  0.09 0.2 0  0.12 0.2 0  0.15 0.2 0  0.18 0.2 0  0.21 0.2 0  0.24 0.2 0  0.27 0.2 0  0.3 0.2 0  0.33 0.2 0  0.36 0.2 0  0.39 0.2 0  0.42 0.2 0  0.45 0.2 0  0.48 0.2 0  0.51 0.2 0  0.54 0.2 0  0.57 0.2 0  0.6 0.2 0  0.63 0.2 0  0.66 0.2 0  0.6899999999999999 0.2 0  0.72 0.2 0  0.75 0.2 0  0.78 0.2 0  0.8100000000000001 0.2 0  0.84 0.2 0  0.87 0.2 0  0.9 0.2 0  0.93 0.2 0  0.96 0.2 0  0.99 0.2 0  1.02 0.2 0  1.05 0.2 0  1.08 0.2 0  1.11 0.2 0  1.14 0.2 0  1.17 0.2 0  1.2 0.2 0  1.23 0.2 0  1.26 0.2 0  1.29 0.2 0  1.32 0.2 0  1.35 0.2 0  1.38 0.2 0  1.41 0.2 0  1.44 0.2 0  1.47 0.2 0  1.5 0.2 0  0 0.22 0  0.03 0.22 0  0.06 0.22 0  0.09 0.22 0  0.12 0.22 0  0.15 0.22 0  0.18 0.22 0  0.21 0.22 0  0.24 0.22 0  0.27 0.22 0  0.3 0.22 0  0.33 0.22 0  0.36 0.22 0  0.39 0.22 0  0.42 0.22 0  0.45 0.22 0  0.48 0.22 0  0.51 0.22 0  0.54 0.22 0  0.57 0.22 0  0.6 0.22 0  0.63 0.22 0  0.66 0.22 0  0.6899999999999999 0.22 0  0.72 0.22 0  0.75 0.22 0  0.78 0.22 0  0.8100000000000001 0.22 0  0.84 0.22 0  0.87 0.22 0  0.9 0.22 0  0.93 0.22 0  0.96 0.22 0  0.99 0.22 0  1.02 0.22 0  1.05 0.22 0  1.08 0.22 0  1.11 0.22 0  1.14 0.22 0  1.17 0.22 0  1.2 0.22 0  1.23 0.22 0  1.26 0.22 0  1.29 0.22 0  1.32 0.22 0  1.35 0.22 0  1.38 0.22 0  1.41 0.22 0  1.44 0.22 0  1.47 0.22 0  1.5 0.22 0  0 0.24 0  0.03 0.24 0  0.06 0.24 0  0.09 0.24 0  0.12 0.24 0  0.15 0.24 0  0.18 0.24 0  0.21 0.24 0  0.24 0.24 0  0.27 0.24 0  0.3 0.24 0  0.33 0.24 0  0.36 0.24 0  0.39 0.24 0  0.42 0.24 0  0.45 0.24 0  0.48 0.24 0  0.51 0.24 0  0.54 0.24 0  0.57 0.24 0  0.6 0.24 0  0.63 0.24 0  0.66 0.24 0  0.6899999999999999 0.24 0  0.72 0.24 0  0.75 0.24 0  0.78 0.24 0  0.8100000000000001 0.24 0  0.84 0.24 0  0.87 0.24 0  0.9 0.24 0  0.93 0.24 0  0.96 0.24 0  0.99 0.24 0  1.02 0.24 0  1.05 0.24 0  1.08 0.24 0  1.11 0.24 0  1.14 0.24 0  1.17 0.24 0  1.2 0.24 0  1.23 0.24 0  1.26 0.24 0  1.29 0.24 0  1.32 0.24 0  1.35 0.24 0  1.38 0.24 0  1.41 0.24 0  1.44 0.24 0  1.47 0.24 0  1.5 0.24 0  0 0.26 0  0.03 0.26 0  0.06 0.26 0  0.09 0.26 0  0.12 0.26 0  0.15 0.26 0  0.18 0.26 0  0.21 0.26 0  0.24 0.26 0  0.27 0.26 0  0.3 0.26 0  0.33 0.26 0  0.36 0.26 0  0.39 0.26 0  0.42 0.26 0  0.45 0.26 0  0.48 0.26 0  0.51 0.26 0  0.54 0.26 0  0.57 0.26 0  0.6 0.26 0  0.63 0.26 0  0.66 0.26 0  0.6899999999999999 0.26 0  0.72 0.26 0  0.75 0.26 0  0.78 0.26 0  0.8100000000000001 0.26 0  0.84 0.26 0  0.87 0.26 0  0.9 0.26 0  0.93 0.26 0  0.96 0.26 0  0.99 0.26 0  1.02 0.26 0  1.05 0.26 0  1.08 0.26 0  1.11 0.26 0  1.14 0.26 0  1.17 0.26 0  1.2 0.26 0  1.23 0.26 0  1.26 0.26 0  1.29 0.26 0  1.32 0.26 0  1.35 0.26 0  1.38 0.26 0  1.41 0.26 0  1.44 0.26 0  1.47 0.26 0  1.5 0.26 0  0 0.28 0  0.03 0.28 0  0.06 0.28 0  0.09 0.28 0  0.12 0.28 0  0.15 0.28 0  0.18 0.28 0  0.21 0.28 0  0.24 0.28 0  0.27 0.28 0  0.3 0.28 0  0.33 0.28 0  0.36 0.28 0  0.39 0.28 0  0.42 0.28 0  0.45 0.28 0  0.48 0.28 0  0.51 0.28 0  0.54 0.28 0  0.57 0.28 0  0.6 0.28 0  0.63 0.28 0  0.66 0.28 0  0.6899999999999999 0.28 0  0.72 0.28 0  0.75 0.28 0  0.78 0.28 0  0.8100000000000001 0.28 0  0.84 0.28 0  0.87 0.28 0  0.9 0.28 0  0.93 0.28 0  0.96 0.28 0  0.99 0.28 0  1.02 0.28
[...]
<PointData  Scalars="sensitivity"> 
<DataArray  type="Float64"  Name="sensitivity"  format="ascii">-1.1733491490024214e-06  -1.8281876594880881e-05  -7.2512909413483700e-05  -1.7570658158521998e-04  -3.2118363348246576e-04  -4.8470060508858185e-04  -6.4136639577142430e-04  -7.7678259924966774e-04  -8.8638492747783188e-04  -9.7057531285909486e-04  -1.0312092093898476e-03  -1.0702954618503418e-03  -1.0899599993100179e-03  -1.0927916113580977e-03  -1.0820367297929949e-03  -1.0614183352801315e-03  -1.0347104409468690e-03  -1.0053204255022481e-03  -9.7600703008043064e-04  -9.4876737406171725e-04  -9.2488859819150275e-04  -9.0510920926034112e-04  -8.8980749683936842e-04  -8.7915601110903640e-04  -8.7322183186693437e-04  -8.7202060065633862e-04  -8.7554026859733996e-04  -8.8374519713239875e-04  -8.9656084509637279e-04  -9.1382875174127372e-04  -9.3521840093826905e-04  -9.6009652478125536e-04  -9.8738580763570324e-04  -1.0154573375307085e-03  -1.0420754245746404e-03  -1.0644473365511000e-03  -1.0794336018182056e-03  -1.0837383066815377e-03  -1.0738785289144601e-03  -1.0461714427432473e-03  -9.9699121419469477e-04  -9.2315924123846042e-04  -8.2235225945372233e-04  -6.9397637704222558e-04  -5.4163616720568936e-04  -3.7732216915787930e-04  -2.2335141734678267e-04  -1.0483858216830651e-04  -3.4745744197456088e-05  -4.8229536355440500e-06  -1.8553798917911801e-08  -9.8480413398009989e-06  -9.2262166572331847e-05  -3.5338495511641428e-04  -8.8351394668502697e-04  -1.6656617175219901e-03  -2.5738540068812646e-03  -3.4636613237663981e-03  -4.2441076090161244e-03  -4.8824394622787905e-03  -5.3780228393750145e-03  -5.7405977737277104e-03  -5.9811236683396177e-03  -6.1107608913397865e-03  -6.1428835255771556e-03  -6.0947328886288166e-03  -5.9868391587307342e-03  -5.8406388284756479e-03  -5.6759223700237268e-03  -5.5090436021206224e-03  -5.3520899823305563e-03  -5.2130100858084130e-03  -5.0964460018539303e-03  -5.0048101844808405e-03  -4.9392180065736414e-03  -4.9001155224181712e-03  -4.8876265313778609e-03  -4.9017112514931288e-03  -4.9422095811698288e-03  -5.0087850643271720e-03  -5.1007206032910321e-03  -5.2164807626465344e-03  -5.3530075470026080e-03  -5.5048962231709934e-03  -5.6637362018584639e-03  -5.8177299424073334e-03  -5.9517736313491783e-03  -6.0485271326282475e-03  -6.0897855461972683e-03  -6.0564587434803526e-03  -5.9281517388510580e-03  -5.6844088407676805e-03  -5.3070566843772113e-03  -4.7823148288367087e-03  -4.1038085709978137e-03  -3.2827186738351817e-03  -2.3706485964301149e-03  -1.4785259651955234e-03  -7.5083691165126777e-04  -2.8687260732892768e-04  -6.9310664556254616e-05  -3.2888582579411778e-06  -2.9048573585054586e-05  -1.8360046507868793e-04  -5.3721793659736389e-04  -1.2417860857342185e-03  -2.2554438619564669e-03  -3.3967497432758065e-03  -4.4889737537225109e-03  -5.4351217125420404e-03  -6.2062742514288694e-03  -6.8055196359408246e-03  -7.2445072708236351e-03  -7.5351790886796308e-03  -7.6893962435974055e-03  -7.7218200013078565e-03  -7.6528415692524981e-03  -7.5082012924699579e-03  -7.3155048703445451e-03  -7.1004393710882028e-03  -6.8841457625396394e-03  -6.6819699398840190e-03  -6.5036601396981824e-03  -6.3546281027803200e-03  -6.2375093330840651e-03  -6.1534318076231203e-03  -6.1028039089743753e-03  -6.0857106248511910e-03  -6.1020824728687962e-03  -6.1517509198805581e-03  -6.2344160035631658e-03  -6.3494530109193207e-03  -6.4954007837368603e-03  -6.6690034250664540e-03  -6.8639592442588174e-03  -7.0699309226723590e-03  -7.2720525267169437e-03  -7.4509808072843195e-03  -7.5847903392883545e-03  -7.6517380205173204e-03  -7.6295227349502878e-03  -7.4930358366981815e-03  -7.2160085743981509e-03  -6.7757772257651221e-03  -6.1572072888846346e-03  -5.3520095734906478e-03  -4.3640573252817167e-03  -3.2381101921382877e-03  -2.0945184651540725e-03  -1.1194797687723917e-03  -4.7094893088236116e-04  -1.5766886754159677e-04  -1.6675352098589761e-05  -4.9845966748999086e-05  -3.1372423486205258e-04  -7.9779791105988014e-04  -1.6673498378304871e-03  -2.7971377723215031e-03  -3.9578212554796793e-03  -5.0025958200095198e-03  -5.8835968341143328e-03  -6.5987870879935066e-03  -7.1563403331272009e-03  -7.5638816315877150e-03  -7.8285441963708031e-03  -7.9581208945607700e-03  -7.9641500341365370e-03  -7.8663689762084599e-03  -7.6922553998605304e-03  -7.4717757975614283e-03  -7.2324988934284696e-03  -6.9966510867340050e-03  -6.7797201786302264e-03  -6.5908192138486700e-03  -6.4344007939733435e-03  -6.3122303946272018e-03  -6.2248451497313511e-03  -6.1723343229910287e-03  -6.1546443540967041e-03  -6.1716699537843114e-03  -6.2232873011038355e-03  -6.3093627210302908e-03  -6.4296525128255365e-03  -6.5833632641976933e-03  -6.7680989188287632e-03  -6.9782095227187537e-03  -7.2034812716474756e-03  -7.4286155215521421e-03  -7.6327413899074910e-03  -7.7919773047850655e-03  -7.8850782044528941e-03  -7.8926706428868905e-03  -7.7908928919234784e-03  -7.5514369318940393e-03  -7.1500487432474480e-03  -6.5779609184791425e-03  -5.8328317490805451e-03  -4.9056008296595290e-03  -3.8011059613326731e-03  -2.5964160396093035e-03  -1.4876340058965470e-03  -6.8067762178010004e-04  -2.6373914508000593e-04  -3.6894951066746417e-05  -5.2281405957729356e-05  -4.7861385202502656e-04  -1.3160370698841021e-03  -2.5602922420343748e-03  -3.8428378228417314e-03  -4.9142197953517168e-03  -5.7700471684899923e-03  -6.4731480280739483e-03  -7.0590760713025568e-03  -7.5300068169070261e-03  -7.8764636219554179e-03  -8.0937406850806193e-03  -8.1815435507478079e-03  -8.1453694117445546e-03  -8.0038700819590816e-03  -7.7875103845326792e-03  -7.5294643798607241e-03  -7.2592960571985100e-03  -7.0000888360854758e-03  -6.7669264026916660e-03  -6.5674967691809584e-03  -6.4045075193466692e-03  -6.2782755190364230e-03  -6.1884300736557265e-03  -6.1346187325033016e-03  -6.1166206475038731e-03  -6.1342937429142638e-03  -6.1875679667793915e-03  -6.2765190514952225e-03  -6.4014355857351145e-03  -6.5625516616119837e-03  -6.7589663693626012e-03  -6.9863416539063675e-03  -7.2350033898944139e-03  -7.4896648149053889e-03  -7.7277428541423629e-03  -7.9218128255078048e-03  -8.0513938027123588e-03  -8.1046483917510681e-03  -8.0610538850765957e-03  -7.8891395849864290e-03  -7.5602261782771176e-03  -7.0836287061931775e-03  -6.4888016563701299e-03  -5.7548395642334094e-03  -4.7971589165796526e-03  -3.5801030643467903e-03  -2.2631469177727785e-03  -1.0970539684920192e-03  -3.6578246197443797e-04  -4.9760100458873497e-05  -4.0003451270270341e-05  -8.0873530716498256e-04  -3.0106109518418071e-03  -5.7298705220181862e-03  -7.2574804906197655e-03  -7.5718793491323655e-03  -7.4644775999972339e-03  -7.4982326673401056e-03  -7.7301615320611548e-03  -8.0248929516773190e-03  -8.2715964688215050e-03  -8.4229009337199422e-03  -8.4569414489857452e-03  -8.3645284253762841e-03  -8.1626729888725751e-03  -7.8882221790728541e-03  -7.5794612313944999e-03  -7.2684782586677505e-03  -6.9793572136141874e-03  -6.7263490064385194e-03  -6.5147828493663648e-03  -6.3446392211783742e-03  -6.2141216290796161e-03  -6.1216817362253666e-03  -6.0665000585844765e-03  -6.0482255944895860e-03  -6.0666871589180917e-03  -6.1218334480073293e-03  -6.2139128076170282e-03  -6.3438265008172387e-03  -6.5132103735352420e-03  -6.7235181298159769e-03  -6.9726858507525580e-03  -7.2517915002101837e-03  -7.5456559607651246e-03  -7.8297206454818816e-03  -8.0695060601989905e-03  -8.2444794886680373e-03  -8.3568061507177105e-03  -8.3938952636023641e-03  -8.3329134305844110e-03  -8.1356405161877865e-03  -7.8819547030027897e-03  -7.7959765226782423e-03  -7.9065180228506150e-03  -7.8511976230539147e-03  -6.9958218650230559e-03  -4.7671950599260451e-03  -2.1323883912943214e-03  -4.7861398343700915e-04  -3.9537510968026677e-05  -2.1823433197150019e-04  -3.0529682974117026e-03  -1.1634288366370215e-02  -1.9642729169226682e-02  -2.2093182675152340e-02  -1.9276449251039936e-02  -1.4882315400379192e-02  -1.1167577679539360e-02  -9.3245112561798054e-03  -8.8301099255456220e-03  -8.8025036416499100e-03  -8.8365910529992382e-03  -8.8014328923341455e-03  -8.6397782764092330e-03  -8.3592751904537927e-03  -8.0087247350536343e-03  -7.6343606429343158e-03  -7.2712537123581509e-03  -6.9450173234989069e-03  -6.6686891541885623e-03  -6.4438663313420835e-03  -6.2663536300560478e-03  -6.1313994638486713e-03  -6.0361093914029487e-03  -5.9793488404731344e-03  -5.9607786445951419e-03  -5.9802187945278999e-03  -6.0375379158701375e-03  -6.1329894835107117e-03  -6.2680153591118046e-03  -6.4459975302458986e-03  -6.6719508377975556e-03  -6.9477842602683462e-03  -7.2653739771451559e-03  -7.6099167105260820e-03  -7.9559182985646775e-03  -8.2538292808127540e-03  -8.4791326205526096e-03  -8.6595567376709977e-03  -8.8251165709786160e-03  -9.0024597180663763e-03  -9.2376237718199763e-03  -1.0020847287805211e-02  -1.2111452227450819e-02  -1.5442268164061643e-02  -1.9009818823649164e-02  -2.0878570544253933e-02  -1.9369408259668069e-02  -1.1834405905368540e-02  -2.1408461333608671e-03  -4.1422386471105102e-05  -1.4310506986564156e-03  -1.6987928403804784e-02  -3.3788625593494888e-02  -3.7681342852746026e-02  -3.8548567552979945e-02  -3.4723097874477374e-02  -3.0109447129520215e-02  -2.4448092490488096e-02  -1.6907304213435566e-02  -1.1724075455927555e-02  -9.8723837225127981e-03  -9.4248879572863160e-03  -9.2438842106884415e-03  -8.9807569955954979e-03  -8.5956972152297570e-03  -8.1483575929260296e-03  -7.6928527384976918e-03  -7.2657180712718660e-03  -6.8950580482262346e-03  -6.5928522450006723e-03  -6.3550138805599579e-03  -6.1708818249700242e-03  -6.0316542249889199e-03  -5.9331981561523703e-03  -5.8745465346662050e-03  -5.8556550490524188e-03  -5.8763547155901595e-03  -5.9362493613653953e-03  -6.0352242466570564e-03  -6.1748786173185157e-03  -6.3605319015530622e-03  -6.6023538315174695e-03  -6.9093472720708517e-03  -7.2743444960574680e-03  -7.6835017086405999e-03  -8.1134136065791305e-03  -8.4869660941963784e-03  -8.7723772414485517e-03  -9.0568676678323152e-03  -9.5467459282075635e-03  -1.0667222635951679e-02  -1.2863133993166494e-02  -1.6889743938279824e-02  -2.3675764148256302e-02  -2.9791840071235517e-02  -3.2597399237525061e-02  -3.3587010678263043e-02  -3.5104874934378305e-02  -3.9328124605374291e-02  -1.7363827970597167e-02  -5.5194687686679238e-04  -8.5667821795084569e-03  -3.3262929222120069e-02  -3.5284796117835721e-02  -3.8072555580285196e-02  -3.9628174050745653e-02  -3.8494309120461478e-02  -3.3918660482871066e-02  -3.0863795373809431e-02  -3.0234638370886066e-02  -2.3813673467737585e-02  -1.4947699592799651e-02  -1.1002710852359250e-02  -9.9644650430910503e-03  -9.4442920716006490e-03  -8.8830666524449091e-03  -8.3054707403424563e-03  -7.7498274057147265e-03  -7.2459952203308446e-03  -6.8243838294508984e-03  -6.4957441897576596e-03  -6.2475559506492946e-03  -6.0589972675157118e-03  -5.9158359557038740e-03  -5.8135422550109972e-03  -5.7524327890177661e-03  -5.7331820783579727e-03  -5.7555960783155823e-03  -5.8187355818349181e-03  -5.9214302963155954e-03  -6.0644645276273250e-03  -6.2548936754474203e-03  -6.5102302886582159e-03  -6.8528352081860377e-03  -7.2780289163865150e-03  -7.7670518647386614e-03  -8.3145686475500427e-03  -8.8123886897735759e-03  -9.2213194387730894e-03  -9.9167055301160722e-03  -1.1930376147879300e-02  -1.6093428167663851e-02  -2.2528075805368475e-02  -2.7298696698032268e-02  -3.0207504307666343e-02  -3.4679828714643465e-02  -3.6672658562147457e-02  -3.6828982041628572e-02  -3.6831525658302791e-02  -3.8508518392505083e-02  -3.9615563089714464e-02  -6.8295531947852022e-03  -1.5194864106778167e-02  -3.2946884367382419e-02  -3.2726820225465567e-02  -3.2647132029622529e-02  -3.2265612839054360e-02  -3.2497716177373119e-02  -3.1402715802061033e-02  -2.8008318969039811e-02  -2.6942446733466175e-02  -2.9937568153139974e-02  -2.8360291598501529e-02  -1.8933808470069625e-02  -1.2651107747207856e-02  -1.0400465872904805e-02  -9.3183913050197461e-03  -8.5082730219465299e-03  -7.8128899103284150e-03  -7.2068842703792695e-03  -6.7244367647387240e-03  -6.3725989236689262e-03  -6.1213778651219514e-03  -5.9328401882887370e-03  -5.7859167236143007e-03  -5.6782618459102372e-03  -5.6137135357143290e-03  -5.5940915011842432e-03  -5.6189692284992158e-03  -5.6866222835744388e-03  -5.7938165560008749e-03  -5.9385130004081972e-03  -6.1283074586508859e-03  -6.3913425182125548e-03  -6.7749391841861089e-03  -7.2811573109644520e-03  -7.8822113685447538e-03  -8.6372898062074006e-03  -9.4557281738172020e-03  -1.0559912569163507e-02  -1.2976386100605863e-02  -1.8380424799749467e-02  -2.6323420978817468e-02  -2.9591994241025755e-02  -2.9025478168839110e-02  -3.0312817849621206e-02  -3.1330515774426186e-02  -3.1173865194114969e-02  -3.1921422354514915e-02  -3.3321827315745733e-02  -3.4396518720363270e-02  -3.3587577293429961e-02  -1.7240671515742555e-02  -1.9317898599416641e-02  -3.3428746800967690e-02  -3.2311914138729886e-02  -3.4489636319847437e-02  -3.3758271655383559e-02  -3.1431262930659357e-02  -3.0256104270757291e-02  -2.8812805504841669e-02  -2.6738886997406525e-02  -2.5831941563492805e-02  -2.7472616576716583e-02  -2.8786735889360111e-02  -2.3940321333492245e-02  -1.5164448286692766e-02  -1.0782260288713957e-02  -9.0039666711026495e-03  -7.9749274649353104e-03  -7.1895626197536209e-03  -6.6076183826241372e-03  -6.2279196425126578e-03  -5.9838882856610813e-03  -5.8008929418820066e-03  -5.6481636238987325e-03  -5.5315478181629874e-03  -5.4620926729042662e-03  -5.4424136705111181e-03  -5.4711563560979112e-03  -5.5461395386801138e-03  -5.6612849441466419e-03  -5.8083827436887182e-03  -5.9927328950616652e-03  -6.2579852395410777e-03  -6.6944410279256711e-03  -7.3400859992448966e-03  -8.1212935276220467e-03  -9.4896504334248313e-03  -1.1712678705060042e-02  -1.5051348949876689e-02  -2.0845673533459057e-02  -2.5709817007473362e-02  -2.7655774296658622e-02  -2.8660253986481921e-02  -2.9931846070155449e-02  -3.0096033493919913e-02  -3.0296228580041343e-02  -3.1886410407666849e-02  -3.3022570958641556e-02  -3.2356947127780478e-02  -3.1831776864211694e-02  -3.3974799647574924e-02  -1.8417311964155064e-02  -2.9132191435116382e-02  -4.7540904608236727e-02  -3.7291643174615273e-02  -3.3985643206289530e-02  -3.5033412670440925e-02  -3.3986245109480166e-02  -3.1621838064709390e-02  -3.0248330524416705e-02  -2.9635123946154942e-02  -2.9038225416394177e-02  -2.8125868009285418e-02  -2.6723514074567391e-02  -2.7862056726701580e-02  -2.7963483166459108e-02  -1.8563282269408485e-02  -1.1999614621969204e-02  -9.0212331619696513e-03  -7.4978702512723530e-03  -6.6334103293218460e-03  -6.1642859139063467e-03  -5.9132291710460071e-03  -5.7260658611014382e-03  -5.5513891848872742e-03  -5.4131770012254520e-03  -5.3344496396767055e-03  -5.3151930194690420e-03  -5.3510220237778855e-03  -5.4417385824873082e-03  -5.5798298964674061e-03  -5.7469898949707591e-03  -5.9433388874980952e-03  -6.2437123330596218e-03  -6.8397873989707921e-03  -7.9454804625972222e-03  -9.7240167202994922e-03  -1.2947852356558784e-02  -1.8191288044043283e-02  -2.4110265612677456e-02  -2.5670002172463409e-02  -2.7255757510132723e-02  -2.9178103374666624e-02  -3.0011493074708347e-02  -3.0043776584833530e-02  -3.0330614090714761e-02  -3.1740228473913806e-02  -3.3112722637479407e-02  -3.3320598498101060e-02  -3.3703693549310298e-02  -3.8940869765418926e-02  -4.8942054210960401e-02  -2.6063415341049084e-02  -3.5517875299263583e-02  -6.1306786998635961e-02  -4.7088899929572006e-02  -3.7195358622808247e-02  -3.4214535595061060e-02  -3.4578616079661083e-02  -3.3347089423294604e-02  -3.1398635313509872e-02  -3.0514519972791938e-02  -3.0941392427784490e-02  -3.1777749891174038e-02  -3.1290225164867673e-02  -2.8473033535207051e-02  -2.7280466751355422e-02  -2.9237095279221359e-02  -2.3839970588594470e-02  -1.6704237484455382e-02  -1.1381214882649492e-02  -8.5422828849482657e-03  -7.2815914755360815e-03  -6.7113467195520976e-03  -6.3371663180660934e-03  -6.0198060072037384e-03  -5.7872858844483120e-03  -5.6658361168412360e-03  -5.6412224242846634e-03  -5.7027872977989122e-03  -5.8628210158358464e-03  -6.1287159396232541e-03  -6.4892006364741361e-03  -6.9672221784312293e-03  -7.7406265669964754e-03  -9.2569191463681821e-03  -1.2181849888207717e-02  -1.6549771744471392e-02  -2.2842099375063030e-02  -2.8416107024419976e-02  -2.7192509097648077e-02  -2.8601116637226472e-02  -2.9719067649968553e-02  -3.0575749310769510e-02  -3.0115513706435889e-02  -3.0179955489803314e-02  -3.1352048828700900e-02  -3.2801630630125693e-02  -3.3611541626276671e-02  -3.4062609997923557e-02  -3.7950142643713179e-02  -4.7559460566447019e-02  -6.1317160791392281e-02  -3.4157647256717501e-02  -3.4465034026792372e-02  -6.3521975997872807e-02  -5.1125220792825270e-02  -4.1019567120443814e-02  -3.5196848511460835e-02  -3.4183938783901725e-02  -3.3970410353190643e-02  -3.2596116799326232e-02  -3.1042815591091594e-02  -3.0502933684005851e-02  -3.1560600623581646e-02  -3.3493085406602154e-02  -3.4154808191659468e-02  -3.1941394511717326e-02  -2.7701097360240588e-02  -2.7827212506637680e-02  -2.7519094253095431e-02  -2.4813287347648226e-02  -2.0357104374988128e-02  -1.6824381911751386e-02  -1.4608754039601260e-02  -1.2898358219716060e-02  -1.1662194496740023e-02  -1.0930073074181019e-02  -1.0577518116297568e-02  -1.0483439376699865e-02  -1.0628391985197815e-02  -1.1077818421246749e-02  -1.1870341985915772e-02  -1.2974914275069218e-02  -1.4394730435869096e-02  -1.6331405900371146e-02  -1.9264030076242451e-02  -2.3575359304275477e-02  -2.7978836036369251e-02  -2.9251738074535582e-02  -3.0158733766069385e-02  -3.1693809331001757e-02  -3.1808933501634620e-02  -3.1051034162931587e-02  -3.0022791875536203e-02  -3.0042027415679951e-02  -3.0963455857693816e-02  -3.2274764125808965e-02  -3.3402792401294040e-02  -3.3948402193694237e-02  -3.5431104062720827e-02  -4.0919728945741238e-02  -5.0472546353396090e-02  -6.2773201637095322e-02  -3.5610049904117806e-02  -2.6579536862315848e-02  -5.3220996239193803e-02  -4.6528844470615831e-02  -4.0396320191932476e-02  -3.6021093173600915e-02  -3.4240670561532335e-02  -3.4080797512725414e-02  -3.3382702180428173e-02  -3.2073028277516860e-02  -3.0748091792656539e-02  -3.0278074870884564e-02  -3.1403645624435449e-02  -3.3785696506323161e-02  -3.5504185172818815e-02  -3.4427969175025414e-02  -3.0024139528002231e-02  -2.6779861667907703e-02  -2.5930486778866630e-02  -2.6528937889742747e-02  -2.8044444563896383e-02  -2.9817937541543264e-02  -2.9754699182301298e-02  -2.8376775338498725e-02  -2.7448166791267322e-02  -2.7261007987535838e-02  -2.7344992352070961e-02  -2.7441859833732114e-02  -2.7735960746677731e-02  -2.8274445135075661e-02  -2.8598257676977681e-02  -2.8139012735421114e-02  -2.6967922050598690e-02  -2.5788904133677751e-02  -2.5706070582671211e-02  -2.7895501352857004e-02  -3.1440856552695649e-02  -3.3269863640738501e-02  -3.3349876868561008e-02  -3.1549825575151721e-02  -3.0003248008765738e-02  -2.9881715728522648e-02  -3.0662863152656483e-02  -3.1840763471462211e-02  -3.2998123442442892e-02  -3.3771238731703977e-02  -3.4243307045365365e-02  -3.5868453441941513e-02  -3.9659868765984964e-02  -4.5356334553025811e-02  -5.2001472299092646e-02  -2.9581986085111242e-02  -1.8380737198964003e-02  -3.7405300732638355e-02  -3.6898224165717051e-02  -3.6015543430217629e-02  -3.4867578460975580e-02  -3.4155019597932032e-02  -3.4028898765197317e-02  -3.3743281689638228e-02  -3.2912056048472048e-02  -3.1739142185942384e-02  -3.0517689352246691e-02  -2.9910285016859255e-02  -3.0644577201399733e-02  -3.2533063766663629e-02  -3.3985647772119411e-02  -3.3338202595645149e-02  -3.0747928494981445e-02  -2.7992170288031117e-02  -2.6573529084412677e-02  -2.6992103528236659e-02  -2.8951873151105197e-02  -3.0829134689768781e-02  -3.1100263707868583e-02  -3.0536459192186935e-02  -3.0297227789081227e-02  -3.0422133770652525e-02  -3.0511012033249484e-02  -3.0499656331650728e-02  -3.0525998309466552e-02  -3.0488332726901431e-02  -3.0030154244139313e-02  -