<?xml version="1.0"?>
<VTKFile type="UnstructuredGrid"  version="0.1"  >
<UnstructuredGrid>
<Piece  NumberOfPoints="2601" NumberOfCells="5000">
<Points>
<DataArray  type="Float64"  NumberOfComponents="3"  format="ascii">0 0 0  0.03 0 0  0.06 0 0  0.09 0 0  0.12 0 0  0.15 0 0  0.18 0 0  0.21 0 0  0.24 0 0  0.27 0 0  0.3 0 0  0.33 0 0  0.36 0 0  0.39 0 0  0.42 0 0  0.45 0 0  0.48 0 0  0.51 0 0  0.54 0 0  0.57 0 0  0.6 0 0  0.63 0 0  0.66 0 0  0.6899999999999999 0 0  0.72 0 0  0.75 0 0  0.78 0 0  0.8100000000000001 0 0  0.84 0 0  0.87 0 0  0.9 0 0  0.93 0 0  0.96 0 0  0.99 0 0  1.02 0 0  1.05 0 0  1.08 0 0  1.11 0 0  1.14 0 0  1.17 0 0  1.2 0 0  1.23 0 0  1.26 0 0  1.29 0 0  1.32 0 0  1.35 0 0  1.38 0 0  1.41 0 0  1.44 0 0  1.47 0 0  1.5 0 0  0 0.02 0  0.03 0.02 0  0.06 0.02 0  0.09 0.02 0  0.12 0.02 0  0.15 0.02 0  0.18 0.02 0  0.21 0.02 0  0.24 0.02 0  0.27 0.02 0  0.3 0.02 0  0.33 0.02 0  0.36 0.02 0  0.39 0.02 0  0.42 0.02 0  0.45 0.02 0  0.48 0.02 0  0.51 0.02 0  0.54 0.02 0  0.57 0.02 0  0.6 0.02 0  0.63 0.02 0  0.66 0.02 0  0.6899999999999999 0.02 0  0.72 0.02 0  0.75 0.02 0  0.78 0.02 0  0.8100000000000001 0.02 0  0.84 0.02 0  0.87 0.02 0  0.9 0.02 0  0.93 0.02 0  0.96 0.02 0  0.99 0.02 0  1.02 0.02 0  1.05 0.02 0  1.08 0.02 0  1.11 0.02 0  1.14 0.02 0  1.17 0.02 0  1.2 0.02 0  1.23 0.02 0  1.26 0.02 0  1.29 0.02 0  1.32 0.02 0  1.35 0.02 0  1.38 0.02 0  1.41 0.02 0  1.44 0.02 0  1.47 0.02 0  1.5 0.02 0  0 0.04 0  0.03 0.04 0  0.06 0.04 0  0.09 0.04 0  0.12 0.04 0  0.15 0.04 0  0.18 0.04 0  0.21 0.04 0  0.24 0.04 0  0.27 0.04 0  0.3 0.04 0  0.33 0.04 0  0.36 0.04 0  0.39 0.04 0  0.42 0.04 0  0.45 0.04 0  0.48 0.04 0  0.51 0.04 0  0.54 0.04 0  0.57 0.04 0  0.6 0.04 0  0.63 0.04 0  0.66 0.04 0  0.6899999999999999 0.04 0  0.72 0.04 0  0.75 0.04 0  0.78 0.04 0  0.8100000000000001 0.04 0  0.84 0.04 0  0.87 0.04 0  0.9 0.04 0  0.93 0.04 0  0.96 0.04 0  0.99 0.04 0  1.02 0.04 0  1.05 0.04 0  1.08 0.04 0  1.11 0.04 0  1.14 0.04 0  1.17 0.04 0  1.2 0.04 0  1.23 0.04 0  1.26 0.04 0  1.29 0.04 0  1.32 0.04 0  1.35 0.04 0  1.38 0.04 0  1.41 0.04 0  1.44 0.04 0  1.47 0.04 0  1.5 0.04 0  0 0.06 0  0.03 0.06 0  0.06 0.06 0  0.09 0.06 0  0.12 0.06 0  0.15 0.06 0  0.18 0.06 0  0.21 0.06 0  0.24 0.06 0  0.27 0.06 0  0.3 0.06 0  0.33 0.06 0  0.36 0.06 0  0.39 0.06 0  0.42 0.06 0  0.45 0.06 0  0.48 0.06 0  0.51 0.06 0  0.54 0.06 0  0.57 0.06 0  0.6 0.06 0  0.63 0.06 0  0.66 0.06 0  0.6899999999999999 0.06 0  0.72 0.06 0  0.75 0.06 0  0.78 0.06 0  0.8100000000000001 0.06 0  0.84 0.06 0  0.87 0.06 0  0.9 0.06 0  0.93 0.06 0  0.96 0.06 0  0.99 0.06 0  1.02 0.06 0  1.05 0.06 0  1.08 0.06 0  1.11 0.06 0  1.14 0.06 0  1.17 0.06 0  1.2 0.06 0  1.23 0.06 0  1.26 0.06 0  1.29 0.06 0  1.32 0.06 0  1.35 0.06 0  1.38 0.06 0  1.41 0.06 0  1.44 0.06 0  1.47 0.06 0  1.5 0.06 0  0 0.08 0  0.03 0.08 0  0.06 0.08 0  0.09 0.08 0  0.12 0.08 0  0.15 0.08 0  0.18 0.08 0  0.21 0.08 0  0.24 0.08 0  0.27 0.08 0  0.3 0.08 0  0.33 0.08 0  0.36 0.08 0  0.39 0.08 0  0.42 0.08 0  0.45 0.08 0  0.48 0.08 0  0.51 0.08 0  0.54 0.08 0  0.57 0.08 0  0.6 0.08 0  0.63 0.08 0  0.66 0.08 0  0.6899999999999999 0.08 0  0.72 0.08 0  0.75 0.08 0  0.78 0.08 0  0.8100000000000001 0.08 0  0.84 0.08 0  0.87 0.08 0  0.9 0.08 0  0.93 0.08 0  0.96 0.08 0  0.99 0.08 0  1.02 0.08 0  1.05 0.08 0  1.08 0.08 0  1.11 0.08 0  1.14 0.08 0  1.17 0.08 0  1.2 0.08 0  1.23 0.08 0  1.26 0.08 0  1.29 0.08 0  1.32 0.08 0  1.35 0.08 0  1.38 0.08 0  1.41 0.08 0  1.44 0.08 0  1.47 0.08 0  1.5 0.08 0  0 0.1 0  0.03 0.1 0  0.06 0.1 0  0.09 0.1 0  0.12 0.1 0  0.15 0.1 0  0.18 0.1 0  0.21 0.1 0  0.24 0.1 0  0.27 0.1 0  0.3 0.1 0  0.33 0.1 0  0.36 0.1 0  0.39 0.1 0  0.42 0.1 0  0.45 0.1 0  0.48 0.1 0  0.51 0.1 0  0.54 0.1 0  0.57 0.1 0  0.6 0.1 0  0.63 0.1 0  0.66 0.1 0  0.6899999999999999 0.1 0  0.72 0.1 0  0.75 0.1 0  0.78 0.1 0  0.8100000000000001 0.1 0  0.84 0.1 0  0.87 0.1 0  0.9 0.1 0  0.93 0.1 0  0.96 0.1 0  0.99 0.1 0  1.02 0.1 0  1.05 0.1 0  1.08 0.1 0  1.11 0.1 0  1.14 0.1 0  1.17 0.1 0  1.2 0.1 0  1.23 0.1 0  1.26 0.1 0  1.29 0.1 0  1.32 0.1 0  1.35 0.1 0  1.38 0.1 0  1.41 0.1 0  1.44 0.1 0  1.47 0.1 0  1.5 0.1 0  0 0.12 0  0.03 0.12 0  0.06 0.12 0  0.09 0.12 0  0.12 0.12 0  0.15 0.12 0  0.18 0.12 0  0.21 0.12 0  0.24 0.12 0  0.27 0.12 0  0.3 0.12 0  0.33 0.12 0  0.36 0.12 0  0.39 0.12 0  0.42 0.12 0  0.45 0.12 0  0.48 0.12 0  0.51 0.12 0  0.54 0.12 0  0.57 0.12 0  0.6 0.12 0  0.63 0.12 0  0.66 0.12 0  0.6899999999999999 0.12 0  0.72 0.12 0  0.75 0.12 0  0.78 0.12 0  0.8100000000000001 0.12 0  0.84 0.12 0  0.87 0.12 0  0.9 0.12 0  0.93 0.12 0  0.96 0.12 0  0.99 0.12 0  1.02 0.12 0  1.05 0.12 0  1.08 0.12 0  1.11 0.12 0  1.14 0.12 0  1.17 0.12 0  1.2 0.12 0  1.23 0.12 0  1.26 0.12 0  1.29 0.12 0  1.32 0.12 0  1.35 0.12 0  1.38 0.12 0  1.41 0.12 0  1.44 0.12 0  1.47 0.12 0  1.5 0.12 0  0 0.14 0  0.03 0.14 0  0.06 0.14 0  0.09 0.14 0  0.12 0.14 0  0.15 0.14 0  0.18 0.14 0  0.21 0.14 0  0.24 0.14 0  0.27 0.14 0  0.3 0.14 0  0.33 0.14 0  0.36 0.14 0  0.39 0.14 0  0.42 0.14 0  0.45 0.14 0  0.48 0.14 0  0.51 0.14 0  0.54 0.14 0  0.57 0.14 0  0.6 0.14 0  0.63 0.14 0  0.66 0.14 0  0.6899999999999999 0.14 0  0.72 0.14 0  0.75 0.14 0  0.78 0.14 0  0.8100000000000001 0.14 0  0.84 0.14 0  0.87 0.14 0  0.9 0.14 0  0.93 0.14 0  0.96 0.14 0  0.99 0.14 0  1.02 0.14 0  1.05 0.14 0  1.08 0.14 0  1.11 0.14 0  1.14 0.14 0  1.17 0.14 0  1.2 0.14 0  1.23 0.14 0  1.26 0.14 0  1.29 0.14 0  1.32 0.14 0  1.35 0.14 0  1.38 0.14 0  1.41 0.14 0  1.44 0.14 0  1.47 0.14 0  1.5 0.14 0  0 0.16 0  0.03 0.16 0  0.06 0.16 0  0.09 0.16 0  0.12 0.16 0  0.15 0.16 0  0.18 0.16 0  0.21 0.16 0  0.24 0.16 0  0.27 0.16 0  0.3 0.16 0  0.33 0.16 0  0.36 0.16 0  0.39 0.16 0  0.42 0.16 0  0.45 0.16 0  0.48 0.16 0  0.51 0.16 0  0.54 0.16 0  0.57 0.16 0  0.6 0.16 0  0.63 0.16 0  0.66 0.16 0  0.6899999999999999 0.16 0  0.72 0.16 0  0.75 0.16 0  0.78 0.16 0  0.8100000000000001 0.16 0  0.84 0.16 0  0.87 0.16 0  0.9 0.16 0  0.93 0.16 0  0.96 0.16 0  0.99 0.16 0  1.02 0.16 0  1.05 0.16 0  1.08 0.16 0  1.11 0.16 0  1.14 0.16 0  1.17 0.16 0  1.2 0.16 0  1.23 0.16 0  1.26 0.16 0  1.29 0.16 0  1.32 0.16 0  1.35 0.16 0  1.38 0.16 0  1.41 0.16 0  1.44 0.16 0  1.47 0.16 0  1.5 0.16 0  0 0.18 0  0.03 0.18 0  0.06 0.18 0  0.09 0.18 0  0.12 0.18 0  0.15 0.18 0  0.18 0.18 0  0.21 0.18 0  0.24 0.18 0  0.27 0.18 0  0.3 0.18 0  0.33 0.18 0  0.36 0.18 0  0.39 0.18 0  0.42 0.18 0  0.45 0.18 0  0.48 0.18 0  0.51 0.18 0  0.54 0.18 0  0.57 0.18 0  0.6 0.18 0  0.63 0.18 0  0.66 0.18 0  0.6899999999999999 0.18 0  0.72 0.18 0  0.75 0.18 0  0.78 0.18 0  0.8100000000000001 0.18 0  0.84 0.18 0  0.87 0.18 0  0.9 0.18 0  0.93 0.18 0  0.96 0.18 0  0.99 0.18 0  1.02 0.18 0  1.05 0.18 0  1.08 0.18 0  1.11 0.18 0  1.14 0.18 0  1.17 0.18 0  1.2 0.18 0  1.23 0.18 0  1.26 0.18 0  1.29 0.18 0  1.32 0.18 0  1.35 0.18 0  1.38 0.18 0  1.41 0.18 0  1.44 0.18 0  1.47 0.18 0  1.5 0.18 0  0 0.2 0  0.03 0.2 0  0.06 0.2 0  0.09 0.2 0  0.12 0.2 0  0.15 0.2 0  0.18 0.2 0  0.21 0.2 0  0.24 0.2 0  0.27 0.2 0  0.3 0.2 0  0.33 0.2 0  0.36 0.2 0  0.39 0.2 0  0.42 0.2 0  0.45 0.2 0  0.48 0.2 0  0.51 0.2 0  0.54 0.2 0  0.57 0.2 0  0.6 0.2 0  0.63 0.2 0  0.66 0.2 0  0.6899999999999999 0.2 0  0.72 0.2 0  0.75 0.2 0  0.78 0.2 0  0.8100000000000001 0.2 0  0.84 0.2 0  0.87 0.2 0  0.9 0.2 0  0.93 0.2 0  0.96 0.2 0  0.99 0.2 0  1.02 0.2 0  1.05 0.2 0  1.08 0.2 0  1.11 0.2 0  1.14 0.2 0  1.17 0.2 0  1.2 0.2 0  1.23 0.2 0  1.26 0.2 0  1.29 0.2 0  1.32 0.2 0  1.35 0.2 0  1.38 0.2 0  1.41 0.2 0  1.44 0.2 0  1.47 0.2 0  1.5 0.2 0  0 0.22 0  0.03 0.22 0  0.06 0.22 0  0.09 0.22 0  0.12 0.22 0  0.15 0.22 0  0.18 0.22 0  0.21 0.22 0  0.24 0.22 0  0.27 0.22 0  0.3 0.22 0  0.33 0.22 0  0.36 0.22 0  0.39 0.22 0  0.42 0.22 0  0.45 0.22 0  0.48 0.22 0  0.51 0.22 0  0.54 0.22 0  0.57 0.22 0  0.6 0.22 0  0.63 0.22 0  0.66 0.22 0  0.6899999999999999 0.22 0  0.72 0.22 0  0.75 0.22 0  0.78 0.22 0  0.8100000000000001 0.22 0  0.84 0.22 0  0.87 0.22 0  0.9 0.22 0  0.93 0.22 0  0.96 0.22 0  0.99 0.22 0  1.02 0.22 0  1.05 0.22 0  1.08 0.22 0  1.11 0.22 0  1.14 0.22 0  1.17 0.22 0  1.2 0.22 0  1.23 0.22 0  1.26 0.22 0  1.29 0.22 0  1.32 0.22 0  1.35 0.22 0  1.38 0.22 0  1.41 0.22 0  1.44 0.22 0  1.47 0.22 0  1.5 0.22 0  0 0.24 0  0.03 0.24 0  0.06 0.24 0  0.09 0.24 0  0.12 0.24 0  0.15 0.24 0  0.18 0.24 0  0.21 0.24 0  0.24 0.24 0  0.27 0.24 0  0.3 0.24 0  0.33 0.24 0  0.36 0.24 0  0.39 0.24 0  0.42 0.24 0  0.45 0.24 0  0.48 0.24 0  0.51 0.24 0  0.54 0.24 0  0.57 0.24 0  0.6 0.24 0  0.63 0.24 0  0.66 0.24 0  0.6899999999999999 0.24 0  0.72 0.24 0  0.75 0.24 0  0.78 0.24 0  0.8100000000000001 0.24 0  0.84 0.24 0  0.87 0.24 0  0.9 0.24 0  0.93 0.24 0  0.96 0.24 0  0.99 0.24 0  1.02 0.24 0  1.05 0.24 0  1.08 0.24 0  1.11 0.24 0  1.14 0.24 0  1.17 0.24 0  1.2 0.24 0  1.23 0.24 0  1.26 0.24 0  1.29 0.24 0  1.32 0.24 0  1.35 0.24 0  1.38 0.24 0  1.41 0.24 0  1.44 0.24 0  1.47 0.24 0  1.5 0.24 0  0 0.26 0  0.03 0.26 0  0.06 0.26 0  0.09 0.26 0  0.12 0.26 0  0.15 0.26 0  0.18 0.26 0  0.21 0.26 0  0.24 0.26 0  0.27 0.26 0  0.3 0.26 0  0.33 0.26 0  0.36 0.26 0  0.39 0.26 0  0.42 0.26 0  0.45 0.26 0  0.48 0.26 0  0.51 0.26 0  0.54 0.26 0  0.57 0.26 0  0.6 0.26 0  0.63 0.26 0  0.66 0.26 0  0.6899999999999999 0.26 0  0.72 0.26 0  0.75 0.26 0  0.78 0.26 0  0.8100000000000001 0.26 0  0.84 0.26 0  0.87 0.26 0  0.9 0.26 0  0.93 0.26 0  0.96 0.26 0  0.99 0.26 0  1.02 0.26 0  1.05 0.26 0  1.08 0.26 0  1.11 0.26 0  1.14 0.26 0  1.17 0.26 0  1.2 0.26 0  1.23 0.26 0  1.26 0.26 0  1.29 0.26 0  1.32 0.26 0  1.35 0.26 0  1.38 0.26 0  1.41 0.26 0  1.44 0.26 0  1.47 0.26 0  1.5 0.26 0  0 0.28 0  0.03 0.28 0  0.06 0.28 0  0.09 0.28 0  0.12 0.28 0  0.15 0.28 0  0.18 0.28 0  0.21 0.28 0  0.24 0.28 0  0.27 0.28 0  0.3 0.28 0  0.33 0.28 0  0.36 0.28 0  0.39 0.28 0  0.42 0.28 0  0.45 0.28 0  0.48 0.28 0  0.51 0.28 0  0.54 0.28 0  0.57 0.28 0  0.6 0.28 0  0.63 0.28 0  0.66 0.28 0  0.6899999999999999 0.28 0  0.72 0.28 0  0.75 0.28 0  0.78 0.28 0  0.8100000000000001 0.28 0  0.84 0.28 0  0.87 0.28 0  0.9 0.28 0  0.93 0.28 0  0.96 0.28 0  0.99 0.28 0  1.02 0.28
[...]
<PointData  Scalars="sensitivity"> 
<DataArray  type="Float64"  Name="sensitivity"  format="ascii">-1.2908894997444606e-06  -1.8365655030363468e-05  -7.6459435199269343e-05  -1.9452691097594099e-04  -3.7292255610707432e-04  -5.8911680972768593e-04  -8.1115127219647974e-04  -1.0119690060607616e-03  -1.1757121940936899e-03  -1.2970988794789181e-03  -1.3776831688095588e-03  -1.4224514735911053e-03  -1.4378336209302867e-03  -1.4306173749852700e-03  -1.4072609110424318e-03  -1.3734720266082179e-03  -1.3340211468148352e-03  -1.2927158193311280e-03  -1.2524608465260176e-03  -1.2153624548098825e-03  -1.1828609596515277e-03  -1.1558799856551227e-03  -1.1349741322181171e-03  -1.1204557442521118e-03  -1.1124887711900680e-03  -1.1111480054747172e-03  -1.1164486044492699e-03  -1.1283511274120727e-03  -1.1467429912875339e-03  -1.1713920906144613e-03  -1.2018665292003125e-03  -1.2374188413869756e-03  -1.2768429240712750e-03  -1.3183205615047689e-03  -1.3592763197560012e-03  -1.3962559185119706e-03  -1.4248480461510936e-03  -1.4396876948920391e-03  -1.4345976991989109e-03  -1.4029221912875594e-03  -1.3380253970211432e-03  -1.2341257079764231e-03  -1.0879277593076519e-03  -9.0152842223324540e-04  -6.8622554160892117e-04  -4.6418778709949178e-04  -2.6572214408016509e-04  -1.1990627909881699e-04  -3.7882307498167148e-05  -5.4253742884833920e-06  -5.1192801220607527e-08  -9.3180218671890080e-06  -7.5384088663666478e-05  -3.0016906503535832e-04  -7.8859790894113279e-04  -1.5600448307157408e-03  -2.5272847318093526e-03  -3.5481691424321727e-03  -4.4923416618951814e-03  -5.2771874859983449e-03  -5.8704581359997282e-03  -6.2743874853776237e-03  -6.5091988523342161e-03  -6.6031601296757904e-03  -6.5871841047399583e-03  -6.4913418188062861e-03  -6.3426167893373955e-03  -6.1638199547750586e-03  -5.9733452628969331e-03  -5.7853746905114061e-03  -5.6103068940466308e-03  -5.4553326554801183e-03  -5.3251107131148745e-03  -5.2224632347462616e-03  -5.1489927937054735e-03  -5.1055518305864519e-03  -5.0925474314437932e-03  -5.1101026360235117e-03  -5.1581029497415531e-03  -5.2361382810656287e-03  -5.3433235978252135e-03  -5.4779668963917030e-03  -5.6370676365085463e-03  -5.8156733734329247e-03  -6.0061727937028393e-03  -6.1976190507611615e-03  -6.3751471349341119e-03  -6.5195606305080856e-03  -6.6072349641404134e-03  -6.6106674226300158e-03  -6.4998197648773086e-03  -6.2441916216912832e-03  -5.8160071316745278e-03  -5.1965781554774203e-03  -4.3873810971904268e-03  -3.4278497051268338e-03  -2.4071500119893625e-03  -1.4553879947336243e-03  -7.1252076251984112e-04  -2.6020995617001075e-04  -6.2085332664795761e-05  -3.5702087707142088e-06  -2.6860547220162647e-05  -1.4656351403227635e-04  -4.3643021577425433e-04  -1.0510568405298721e-03  -1.9926178377437948e-03  -3.1408951402373086e-03  -4.3303169096168600e-03  -5.4147510941746531e-03  -6.3054158032615900e-03  -6.9722340489140350e-03  -7.4214333530775905e-03  -7.6765993110907227e-03  -7.7698258338321285e-03  -7.7367298367400448e-03  -7.6122540917668994e-03  -7.4277550289107959e-03  -7.2097055505828730e-03  -6.9794668568321392e-03  -6.7535214524472448e-03  -6.5439148821065420e-03  -6.3588851806791547e-03  -6.2036620350592892e-03  -6.0813254786225915e-03  -5.9935716329645857e-03  -5.9412811877573137e-03  -5.9248723033288363e-03  -5.9444789911481666e-03  -6.0000041433543733e-03  -6.0910648835079502e-03  -6.2168035785147395e-03  -6.3755104394401822e-03  -6.5640211691252084e-03  -6.7769225297012251e-03  -7.0056929514795896e-03  -7.2379105205398267e-03  -7.4565915890928026e-03  -7.6397208349538118e-03  -7.7600815404247937e-03  -7.7859371611730937e-03  -7.6825090404019896e-03  -7.4150925427604736e-03  -6.9515419355239277e-03  -6.2682802145412582e-03  -5.3593818680712953e-03  -4.2609277903362230e-03  -3.0705127457203631e-03  -1.9273554831251685e-03  -9.9300867800086756e-04  -3.9738790918413008e-04  -1.3032956364781995e-04  -1.6247085643982969e-05  -4.3909316648842444e-05  -2.4829726366319493e-04  -6.4934406422343521e-04  -1.4053188526285353e-03  -2.4501914818068496e-03  -3.6390258662697488e-03  -4.8232050479332681e-03  -5.8671581173139736e-03  -6.6986465649011371e-03  -7.3066543090485611e-03  -7.7048198719619054e-03  -7.9157335336844728e-03  -7.9697435601167807e-03  -7.9020706972695760e-03  -7.7476686661544312e-03  -7.5376471245910933e-03  -7.2980931761703945e-03  -7.0500665887324775e-03  -6.8098313300518241e-03  -6.5891622794284595e-03  -6.3958858375185949e-03  -6.2347160637955664e-03  -6.1082283542740748e-03  -6.0177249632380435e-03  -5.9638375374159690e-03  -5.9468597608065728e-03  -5.9668920788886097e-03  -6.0238827491438099e-03  -6.1175942213332092e-03  -6.2474516543667945e-03  -6.4121802186620121e-03  -6.6091542130725855e-03  -6.8334902596681717e-03  -7.0770907894873490e-03  -7.3278372704044577e-03  -7.5690460036255793e-03  -7.7790193821965538e-03  -7.9306666587518442e-03  -7.9921050685485447e-03  -7.9287342515450693e-03  -7.7088571112108699e-03  -7.3005493579970113e-03  -6.6784203009029059e-03  -5.8268467364211906e-03  -4.7617863981680841e-03  -3.5757594569639987e-03  -2.3873500677350271e-03  -1.3307312629531110e-03  -5.7817979344575035e-04  -2.1131790106349241e-04  -3.4025120037954017e-05  -4.0845050242391762e-05  -3.7359632249551940e-04  -1.0694192756922785e-03  -2.1164843920925621e-03  -3.2685496100185499e-03  -4.4364939674495030e-03  -5.5592273608542084e-03  -6.4944565279269340e-03  -7.2032087625995452e-03  -7.7073987109200128e-03  -8.0229573079739439e-03  -8.1645685484097105e-03  -8.1583935191116598e-03  -8.0392798752375282e-03  -7.8420320252034457e-03  -7.5967826233138995e-03  -7.3284847484601989e-03  -7.0574184332064457e-03  -6.7993491014535657e-03  -6.5655197957258530e-03  -6.3630002945300277e-03  -6.1955920651550599e-03  -6.0650152350723453e-03  -5.9719410855940533e-03  -5.9166296267180113e-03  -5.8992022842829558e-03  -5.9197128771403757e-03  -5.9781626256172503e-03  -6.0745073516037962e-03  -6.2085867408154033e-03  -6.3798126591016139e-03  -6.5864552418598088e-03  -6.8245374623693809e-03  -7.0866734664256125e-03  -7.3613213284554569e-03  -7.6325037969287943e-03  -7.8791695255151870e-03  -8.0749058071099434e-03  -8.1880583669593290e-03  -8.1855900003108186e-03  -8.0377242670873275e-03  -7.7151179306737434e-03  -7.2004593353982363e-03  -6.4824388198617107e-03  -5.5114024167174595e-03  -4.3900026057285702e-03  -3.2422448258063179e-03  -2.0507553255935825e-03  -9.5896732348883589e-04  -2.7957289734001909e-04  -4.0617941434826561e-05  -4.4963087806727787e-05  -7.0640381266100889e-04  -2.6640504757711901e-03  -5.0061016368837851e-03  -6.0188248860862806e-03  -6.4250552971863318e-03  -6.9139620327797234e-03  -7.4296651325020131e-03  -7.8815275659400077e-03  -8.2289206085287715e-03  -8.4361192361711509e-03  -8.4864765198336377e-03  -8.3994331437135979e-03  -8.2114937827580271e-03  -7.9577588768532971e-03  -7.6664416751378670e-03  -7.3605618190872761e-03  -7.0593635312778246e-03  -6.7781270001329181e-03  -6.5275023324312832e-03  -6.3134964785552788e-03  -6.1385411734467118e-03  -6.0030952809192678e-03  -5.9069597648651398e-03  -5.8499368556259920e-03  -5.8319667906470774e-03  -5.8530577675225282e-03  -5.9132525980538277e-03  -6.0127096131016204e-03  -6.1517866806365734e-03  -6.3308544199344157e-03  -6.5495119523683405e-03  -6.8051364326242817e-03  -7.0912671741956033e-03  -7.3970908449386332e-03  -7.7072572130973049e-03  -8.0018683041693586e-03  -8.2571412337056165e-03  -8.4397222992726277e-03  -8.5161563078378927e-03  -8.4527444611672258e-03  -8.2796687874092736e-03  -7.9709580108627658e-03  -7.6367740863060108e-03  -7.2121784295547959e-03  -6.8760936117202775e-03  -6.3592035013113864e-03  -4.3783650366871624e-03  -1.8919097794884627e-03  -3.8658688424654389e-04  -2.7245307461533573e-05  -5.8264704023679983e-04  -3.0321097165824621e-03  -1.0728742545107707e-02  -1.9622689592404166e-02  -2.2325332713726800e-02  -1.8586771326382784e-02  -1.3522446330358142e-02  -1.0087634295516866e-02  -8.9714364676392409e-03  -8.9103073574847268e-03  -8.9552694450726437e-03  -8.8873717512256752e-03  -8.6953496234851956e-03  -8.4198589584015288e-03  -8.0962601008272538e-03  -7.7483545453701543e-03  -7.3960280002236707e-03  -7.0573985759475035e-03  -6.7475779550491624e-03  -6.4767408626997475e-03  -6.2494392180651812e-03  -6.0660624668808956e-03  -5.9252571363135643e-03  -5.8256999230686599e-03  -5.7667107973456014e-03  -5.7481041903812979e-03  -5.7698657329773714e-03  -5.8320355863475766e-03  -5.9349141673866448e-03  -6.0794236884737620e-03  -6.2672046652718369e-03  -6.4997975105124360e-03  -6.7766267054753691e-03  -7.0922920725475470e-03  -7.4365353793143579e-03  -7.7943564340490273e-03  -8.1498180122819355e-03  -8.4806132547950303e-03  -8.7473289024051545e-03  -8.9297822148403753e-03  -9.0013552508434996e-03  -9.1594279624488198e-03  -9.5229736547971146e-03  -1.1097659802863464e-02  -1.3841801840310435e-02  -1.7976588204085431e-02  -2.2219640859345562e-02  -2.0235038288590752e-02  -1.1903235735227271e-02  -2.5111772615922017e-03  -9.2733238905706031e-05  -1.7979888226028419e-03  -1.8676704783405398e-02  -3.1467681311619380e-02  -3.1471296298424691e-02  -3.1444329990346839e-02  -3.1434588450929508e-02  -3.1363003735207402e-02  -2.4888037939089894e-02  -1.4470975231110376e-02  -1.0466066185724472e-02  -9.6765716078616535e-03  -9.3840562553106199e-03  -9.0446640261379520e-03  -8.6603798601738117e-03  -8.2547588545405573e-03  -7.8404864457162059e-03  -7.4328153979514467e-03  -7.0491010268803325e-03  -6.7051437908050527e-03  -6.4111163523379935e-03  -6.1695147190176909e-03  -5.9775870116044070e-03  -5.8313844252534499e-03  -5.7282231692327582e-03  -5.6670466481744865e-03  -5.6477122594441632e-03  -5.6702434530150536e-03  -5.7345788049536139e-03  -5.8409728202091947e-03  -5.9908370894072157e-03  -6.1874189176787534e-03  -6.4350743601340101e-03  -6.7364541698083629e-03  -7.0873479994845966e-03  -7.4772987709417066e-03  -7.8923493749357733e-03  -8.3204823398860990e-03  -8.7362003315793087e-03  -9.1351836730848967e-03  -9.4991509895556592e-03  -9.9130888842048365e-03  -1.1580531885828518e-02  -1.5102898883745129e-02  -2.3283578751638927e-02  -3.1234528629035849e-02  -3.1456734870403423e-02  -3.1457953868196824e-02  -3.1460938567620181e-02  -3.1442604233527204e-02  -1.9023719985583793e-02  -1.7100924085096708e-03  -9.3662419609259473e-03  -3.1506229161400390e-02  -3.1504633816074865e-02  -3.1501126308380985e-02  -3.1499001236145976e-02  -3.1508278624537124e-02  -3.1508214482605428e-02  -3.1428130072886022e-02  -3.1048694295815825e-02  -1.9389694597152535e-02  -1.2116276669387332e-02  -1.0149771180408379e-02  -9.4620326896835086e-03  -8.9285499185173013e-03  -8.4309399383309426e-03  -7.9409480602490364e-03  -7.4687136305124800e-03  -7.0313872497484563e-03  -6.6472113101596585e-03  -6.3276535472335466e-03  -6.0720264475392317e-03  -5.8724913025954440e-03  -5.7213886603005321e-03  -5.6145570413332581e-03  -5.5509250125549917e-03  -5.5307463813119599e-03  -5.5542010208125660e-03  -5.6209423163687813e-03  -5.7307764575447555e-03  -5.8852959137850411e-03  -6.0895812148133218e-03  -6.3521150448217611e-03  -6.6811167850978426e-03  -7.0744010757511928e-03  -7.5169931649573789e-03  -7.9993598390384283e-03  -8.5037533774944656e-03  -9.0505563380879929e-03  -9.7026355623554949e-03  -1.0636321842110301e-02  -1.3028825832467134e-02  -1.9298917070744503e-02  -3.0612311533966794e-02  -3.1429609058206506e-02  -3.1516539732463607e-02  -3.1514360312080422e-02  -3.1505664970810088e-02  -3.1496933836931425e-02  -3.1495331754329781e-02  -3.1504700123013776e-02  -7.0974847412650695e-03  -1.5747590621922034e-02  -3.1516380588214619e-02  -3.1521401155709165e-02  -3.1512838715188562e-02  -3.1514541547445804e-02  -3.1504884448529502e-02  -3.1507743058334051e-02  -3.1510853942726430e-02  -3.1473567325817631e-02  -3.1416034250709726e-02  -2.4641248998145720e-02  -1.3842094658658226e-02  -1.0254333138259986e-02  -9.2630139136941937e-03  -8.6320314471696868e-03  -8.0498330658143602e-03  -7.5024969034497100e-03  -7.0009515696151945e-03  -6.5688861782763020e-03  -6.2224992930244704e-03  -5.9552407854970074e-03  -5.7505557901524921e-03  -5.5955913145314456e-03  -5.4849531018228842e-03  -5.4183839523086075e-03  -5.3971660493613962e-03  -5.4218368551851269e-03  -5.4914742429679449e-03  -5.6046915394629849e-03  -5.7625055445697914e-03  -5.9716756403001116e-03  -6.2470249184006857e-03  -6.6059212137235188e-03  -7.0523956172331009e-03  -7.5517392148913834e-03  -8.1248313099141073e-03  -8.7246867137333959e-03  -9.5563370137505491e-03  -1.1222285331434014e-02  -1.4601010386499165e-02  -2.3173467677674219e-02  -3.1408351186848905e-02  -3.1469454050355526e-02  -3.1485722746650159e-02  -3.1498440776506972e-02  -3.1509964220582241e-02  -3.1512897691440014e-02  -3.1518261755322553e-02  -3.1509635699859311e-02  -3.1509514790163388e-02  -1.5761736738193456e-02  -1.8376398181855130e-02  -3.1752058787122298e-02  -3.1521061217937490e-02  -3.1532616931211441e-02  -3.1515500130419302e-02  -3.1516822075395211e-02  -3.1508434302263987e-02  -3.1501664575483125e-02  -3.1511478459801338e-02  -3.1517569190172061e-02  -3.1483029319078405e-02  -2.9578869096262256e-02  -1.5744128391790596e-02  -1.0433249209176303e-02  -8.9833380633948957e-03  -8.1881603263259731e-03  -7.5417247823511254e-03  -6.9571206860656702e-03  -6.4641738079825430e-03  -6.0915098526523968e-03  -5.8184330951069653e-03  -5.6129492140889444e-03  -5.4554529167102281e-03  -5.3403757440238257e-03  -5.2698965769416520e-03  -5.2473108744930256e-03  -5.2737587855628118e-03  -5.3474061532588612e-03  -5.4643740059957492e-03  -5.6236919728819097e-03  -5.8329063521905967e-03  -6.1161882664333873e-03  -6.5045037501893672e-03  -7.0322824980759797e-03  -7.6049384840391268e-03  -8.3353190953498642e-03  -9.2437837396489326e-03  -1.1696292350042409e-02  -1.6464405981494987e-02  -2.7376983598220495e-02  -3.1427013855739892e-02  -3.1527753316463208e-02  -3.1497860726252234e-02  -3.1498363988344234e-02  -3.1517309149432446e-02  -3.1517206147251939e-02  -3.1527026876888777e-02  -3.1531584344662883e-02  -3.1513620432065813e-02  -3.2014783131925836e-02  -1.6703974117629319e-02  -2.8545093916045344e-02  -4.6200771279571388e-02  -3.5684385415878137e-02  -3.1538704623219033e-02  -3.1522000960304268e-02  -3.1517145931930536e-02  -3.1521367031386971e-02  -3.1510847278765221e-02  -3.1504365116659473e-02  -3.1513505821358451e-02  -3.1515013358185504e-02  -3.1428653362910092e-02  -3.1057580459619028e-02  -1.9372685783040997e-02  -1.1546070571860826e-02  -8.7741409225717097e-03  -7.7233108922494876e-03  -6.9486290407833277e-03  -6.3492404331351076e-03  -5.9468983977702628e-03  -5.6742432424100276e-03  -5.4716578163995942e-03  -5.3112189195553975e-03  -5.1891196392220354e-03  -5.1125913603113264e-03  -5.0880509720571876e-03  -5.1174445732874311e-03  -5.1982594332861450e-03  -5.3220653343583370e-03  -5.4843498109479428e-03  -5.6914475409905818e-03  -5.9806703646863068e-03  -6.4083904728192065e-03  -7.1063514735314436e-03  -7.9050103432692746e-03  -9.5058780035652945e-03  -1.2558710824602600e-02  -1.9134031163572301e-02  -3.0936684700171080e-02  -3.1429562856732866e-02  -3.1500971723156260e-02  -3.1498989412017189e-02  -3.1510942326948531e-02  -3.1520661316017627e-02  -3.1520637462600219e-02  -3.1525338080724927e-02  -3.1518305703415267e-02  -3.1552425209647426e-02  -3.7755365997038430e-02  -4.7976700697556045e-02  -2.5134848340327025e-02  -3.5088406494415005e-02  -6.0558732840469393e-02  -4.6035968848950552e-02  -3.5324492140215373e-02  -3.1529573594996661e-02  -3.1518401916207826e-02  -3.1517759957580556e-02  -3.1521886172380706e-02  -3.1516637107541740e-02  -3.1507038900220129e-02  -3.1507456504426462e-02  -3.1508055045625108e-02  -3.1463899065853625e-02  -3.1427886063368264e-02  -2.6621068221813225e-02  -1.5911747990653244e-02  -1.0504976313307294e-02  -7.9762292937791950e-03  -6.7628125133918221e-03  -6.1339320277420820e-03  -5.7625858341236571e-03  -5.5068287128151264e-03  -5.3098256156852370e-03  -5.1607308846635712e-03  -5.0687339779587129e-03  -5.0406768957750514e-03  -5.0785841449825378e-03  -5.1822198353203780e-03  -5.3407495247260973e-03  -5.5541012705523120e-03  -5.8400465834012715e-03  -6.2815852151988085e-03  -7.0504993826047847e-03  -8.7844319469837333e-03  -1.1399772308200235e-02  -1.5763818642674260e-02  -2.5231373865444280e-02  -3.1249539511728663e-02  -3.1484623143722267e-02  -3.1511159723024491e-02  -3.1492375546291085e-02  -3.1515308994259791e-02  -3.1525533176141575e-02  -3.1523385529000525e-02  -3.1519402738811722e-02  -3.1516982421990969e-02  -3.1548452946203835e-02  -3.6379077918714163e-02  -4.6474092666208978e-02  -6.0513028740090659e-02  -3.3675689614570507e-02  -3.4022225377807754e-02  -6.2921274504480817e-02  -5.0486918335636108e-02  -3.9867641375113255e-02  -3.2864419984711131e-02  -3.1517466965134563e-02  -3.1511933912771996e-02  -3.1516242757263030e-02  -3.1524105706250069e-02  -3.1519926143593995e-02  -3.1506409303743169e-02  -3.1502404657642973e-02  -3.1512081276197493e-02  -3.1503789347800445e-02  -3.1448638458555264e-02  -3.1314897553253111e-02  -2.7963534672887182e-02  -1.9587461408578314e-02  -1.4519451472776156e-02  -1.1846921345629209e-02  -1.0250527296276533e-02  -9.2240180336559396e-03  -8.5452664712736427e-03  -8.1156455904894381e-03  -7.8913941717206823e-03  -7.8366125466815366e-03  -7.9397824831083669e-03  -8.2164060890615141e-03  -8.6706339187019831e-03  -9.3536059393932777e-03  -1.0353000548878125e-02  -1.1908586259716188e-02  -1.4447060082125918e-02  -1.9147394183204582e-02  -2.7228058608614176e-02  -3.1333336226763812e-02  -3.1411433820366576e-02  -3.1487401820162658e-02  -3.1492029135434640e-02  -3.1499371478002455e-02  -3.1517243889894478e-02  -3.1528558114320010e-02  -3.1524227575157417e-02  -3.1517977621275881e-02  -3.1514579982794930e-02  -3.1521701349049802e-02  -3.3368974960979826e-02  -3.9808599924535878e-02  -4.9837795356160300e-02  -6.2151355879436633e-02  -3.5187615910633178e-02  -2.5793078895702017e-02  -5.2494178744036592e-02  -4.5941754013550863e-02  -3.9551121976192365e-02  -3.4286046774724875e-02  -3.1576638363294877e-02  -3.1512250170509279e-02  -3.1504052597745955e-02  -3.1516047083943004e-02  -3.1524325191190146e-02  -3.1520922896674949e-02  -3.1507285763205557e-02  -3.1501568534313219e-02  -3.1507914187767050e-02  -3.1510719040797969e-02  -3.1486987248469399e-02  -3.1441132996241718e-02  -3.1443050993622761e-02  -3.1481758507853001e-02  -3.1281725033571302e-02  -3.1074738267856356e-02  -3.0626312386376489e-02  -2.9938645183421903e-02  -2.9154063680036531e-02  -2.8596398606520884e-02  -2.8398615898671955e-02  -2.8565315931288356e-02  -2.9095331748344919e-02  -2.9862252346070074e-02  -3.0550616712995186e-02  -3.1062527643659691e-02  -3.1260263184775650e-02  -3.1462573026236236e-02  -3.1459282689828755e-02  -3.1415783327509217e-02  -3.1502630301276514e-02  -3.1506642260187005e-02  -3.1485682458769232e-02  -3.1499973771578003e-02  -3.1519813443402572e-02  -3.1528829135717994e-02  -3.1524933914099711e-02  -3.1514597148723227e-02  -3.1513770946656083e-02  -3.1512295992211940e-02  -3.1610865715770722e-02  -3.4162954879260486e-02  -3.8797096298822970e-02  -4.4796546033867533e-02  -5.1214815383999898e-02  -2.9062897330085033e-02  -1.6748215337689162e-02  -3.6217804859272208e-02  -3.5952279992428844e-02  -3.4753897582569540e-02  -3.3055252190873539e-02  -3.1669530474926752e-02  -3.1514730372664966e-02  -3.1502827207696198e-02  -3.1501763115359946e-02  -3.1514382819896616e-02  -3.1523853416862264e-02  -3.1521880710395599e-02  -3.1510421913592122e-02  -3.1500557927006491e-02  -3.1498257167719819e-02  -3.1499564824182744e-02  -3.1500809909057896e-02  -3.1506064228905062e-02  -3.1521309947418939e-02  -3.1516160463748347e-02  -3.1499617088058020e-02  -3.1496054501702855e-02  -3.1487081275113009e-02  -3.1490514202939822e-02  -3.1488886357180411e-02  -3.1486293354758180e-02  -3.1486025136658373e-02  -3.1488807306467588e-02  -3.1490606200565777e-02  -3.1485216130475654e-02  -3.1495605836493641e-02  -