<?xml version="1.0"?>
<VTKFile type="UnstructuredGrid"  version="0.1"  >
<UnstructuredGrid>
<Piece  NumberOfPoints="2601" NumberOfCells="5000">
<Points>
<DataArray  type="Float64"  NumberOfComponents="3"  format="ascii">0 0 0  0.03 0 0  0.06 0 0  0.09 0 0  0.12 0 0  0.15 0 0  0.18 0 0  0.21 0 0  0.24 0 0  0.27 0 0  0.3 0 0  0.33 0 0  0.36 0 0  0.39 0 0  0.42 0 0  0.45 0 0  0.48 0 0  0.51 0 0  0.54 0 0  0.57 0 0  0.6 0 0  0.63 0 0  0.66 0 0  0.6899999999999999 0 0  0.72 0 0  0.75 0 0  0.78 0 0  0.8100000000000001 0 0  0.84 0 0  0.87 0 0  0.9 0 0  0.93 0 0  0.96 0 0  0.99 0 0  1.02 0 0  1.05 0 0  1.08 0 0  1.11 0 0  1.14 0 0  1.17 0 0  1.2 0 0  1.23 0 0  1.26 0 0  1.29 0 0  1.32 0 0  1.35 0 0  1.38 0 0  1.41 0 0  1.44 0 0  1.47 0 0  1.5 0 0  0 0.02 0  0.03 0.02 0  0.06 0.02 0  0.09 0.02 0  0.12 0.02 0  0.15 0.02 0  0.18 0.02 0  0.21 0.02 0  0.24 0.02 0  0.27 0.02 0  0.3 0.02 0  0.33 0.02 0  0.36 0.02 0  0.39 0.02 0  0.42 0.02 0  0.45 0.02 0  0.48 0.02 0  0.51 0.02 0  0.54 0.02 0  0.57 0.02 0  0.6 0.02 0  0.63 0.02 0  0.66 0.02 0  0.6899999999999999 0.02 0  0.72 0.02 0  0.75 0.02 0  0.78 0.02 0  0.8100000000000001 0.02 0  0.84 0.02 0  0.87 0.02 0  0.9 0.02 0  0.93 0.02 0  0.96 0.02 0  0.99 0.02 0  1.02 0.02 0  1.05 0.02 0  1.08 0.02 0  1.11 0.02 0  1.14 0.02 0  1.17 0.02 0  1.2 0.02 0  1.23 0.02 0  1.26 0.02 0  1.29 0.02 0  1.32 0.02 0  1.35 0.02 0  1.38 0.02 0  1.41 0.02 0  1.44 0.02 0  1.47 0.02 0  1.5 0.02 0  0 0.04 0  0.03 0.04 0  0.06 0.04 0  0.09 0.04 0  0.12 0.04 0  0.15 0.04 0  0.18 0.04 0  0.21 0.04 0  0.24 0.04 0  0.27 0.04 0  0.3 0.04 0  0.33 0.04 0  0.36 0.04 0  0.39 0.04 0  0.42 0.04 0  0.45 0.04 0  0.48 0.04 0  0.51 0.04 0  0.54 0.04 0  0.57 0.04 0  0.6 0.04 0  0.63 0.04 0  0.66 0.04 0  0.6899999999999999 0.04 0  0.72 0.04 0  0.75 0.04 0  0.78 0.04 0  0.8100000000000001 0.04 0  0.84 0.04 0  0.87 0.04 0  0.9 0.04 0  0.93 0.04 0  0.96 0.04 0  0.99 0.04 0  1.02 0.04 0  1.05 0.04 0  1.08 0.04 0  1.11 0.04 0  1.14 0.04 0  1.17 0.04 0  1.2 0.04 0  1.23 0.04 0  1.26 0.04 0  1.29 0.04 0  1.32 0.04 0  1.35 0.04 0  1.38 0.04 0  1.41 0.04 0  1.44 0.04 0  1.47 0.04 0  1.5 0.04 0  0 0.06 0  0.03 0.06 0  0.06 0.06 0  0.09 0.06 0  0.12 0.06 0  0.15 0.06 0  0.18 0.06 0  0.21 0.06 0  0.24 0.06 0  0.27 0.06 0  0.3 0.06 0  0.33 0.06 0  0.36 0.06 0  0.39 0.06 0  0.42 0.06 0  0.45 0.06 0  0.48 0.06 0  0.51 0.06 0  0.54 0.06 0  0.57 0.06 0  0.6 0.06 0  0.63 0.06 0  0.66 0.06 0  0.6899999999999999 0.06 0  0.72 0.06 0  0.75 0.06 0  0.78 0.06 0  0.8100000000000001 0.06 0  0.84 0.06 0  0.87 0.06 0  0.9 0.06 0  0.93 0.06 0  0.96 0.06 0  0.99 0.06 0  1.02 0.06 0  1.05 0.06 0  1.08 0.06 0  1.11 0.06 0  1.14 0.06 0  1.17 0.06 0  1.2 0.06 0  1.23 0.06 0  1.26 0.06 0  1.29 0.06 0  1.32 0.06 0  1.35 0.06 0  1.38 0.06 0  1.41 0.06 0  1.44 0.06 0  1.47 0.06 0  1.5 0.06 0  0 0.08 0  0.03 0.08 0  0.06 0.08 0  0.09 0.08 0  0.12 0.08 0  0.15 0.08 0  0.18 0.08 0  0.21 0.08 0  0.24 0.08 0  0.27 0.08 0  0.3 0.08 0  0.33 0.08 0  0.36 0.08 0  0.39 0.08 0  0.42 0.08 0  0.45 0.08 0  0.48 0.08 0  0.51 0.08 0  0.54 0.08 0  0.57 0.08 0  0.6 0.08 0  0.63 0.08 0  0.66 0.08 0  0.6899999999999999 0.08 0  0.72 0.08 0  0.75 0.08 0  0.78 0.08 0  0.8100000000000001 0.08 0  0.84 0.08 0  0.87 0.08 0  0.9 0.08 0  0.93 0.08 0  0.96 0.08 0  0.99 0.08 0  1.02 0.08 0  1.05 0.08 0  1.08 0.08 0  1.11 0.08 0  1.14 0.08 0  1.17 0.08 0  1.2 0.08 0  1.23 0.08 0  1.26 0.08 0  1.29 0.08 0  1.32 0.08 0  1.35 0.08 0  1.38 0.08 0  1.41 0.08 0  1.44 0.08 0  1.47 0.08 0  1.5 0.08 0  0 0.1 0  0.03 0.1 0  0.06 0.1 0  0.09 0.1 0  0.12 0.1 0  0.15 0.1 0  0.18 0.1 0  0.21 0.1 0  0.24 0.1 0  0.27 0.1 0  0.3 0.1 0  0.33 0.1 0  0.36 0.1 0  0.39 0.1 0  0.42 0.1 0  0.45 0.1 0  0.48 0.1 0  0.51 0.1 0  0.54 0.1 0  0.57 0.1 0  0.6 0.1 0  0.63 0.1 0  0.66 0.1 0  0.6899999999999999 0.1 0  0.72 0.1 0  0.75 0.1 0  0.78 0.1 0  0.8100000000000001 0.1 0  0.84 0.1 0  0.87 0.1 0  0.9 0.1 0  0.93 0.1 0  0.96 0.1 0  0.99 0.1 0  1.02 0.1 0  1.05 0.1 0  1.08 0.1 0  1.11 0.1 0  1.14 0.1 0  1.17 0.1 0  1.2 0.1 0  1.23 0.1 0  1.26 0.1 0  1.29 0.1 0  1.32 0.1 0  1.35 0.1 0  1.38 0.1 0  1.41 0.1 0  1.44 0.1 0  1.47 0.1 0  1.5 0.1 0  0 0.12 0  0.03 0.12 0  0.06 0.12 0  0.09 0.12 0  0.12 0.12 0  0.15 0.12 0  0.18 0.12 0  0.21 0.12 0  0.24 0.12 0  0.27 0.12 0  0.3 0.12 0  0.33 0.12 0  0.36 0.12 0  0.39 0.12 0  0.42 0.12 0  0.45 0.12 0  0.48 0.12 0  0.51 0.12 0  0.54 0.12 0  0.57 0.12 0  0.6 0.12 0  0.63 0.12 0  0.66 0.12 0  0.6899999999999999 0.12 0  0.72 0.12 0  0.75 0.12 0  0.78 0.12 0  0.8100000000000001 0.12 0  0.84 0.12 0  0.87 0.12 0  0.9 0.12 0  0.93 0.12 0  0.96 0.12 0  0.99 0.12 0  1.02 0.12 0  1.05 0.12 0  1.08 0.12 0  1.11 0.12 0  1.14 0.12 0  1.17 0.12 0  1.2 0.12 0  1.23 0.12 0  1.26 0.12 0  1.29 0.12 0  1.32 0.12 0  1.35 0.12 0  1.38 0.12 0  1.41 0.12 0  1.44 0.12 0  1.47 0.12 0  1.5 0.12 0  0 0.14 0  0.03 0.14 0  0.06 0.14 0  0.09 0.14 0  0.12 0.14 0  0.15 0.14 0  0.18 0.14 0  0.21 0.14 0  0.24 0.14 0  0.27 0.14 0  0.3 0.14 0  0.33 0.14 0  0.36 0.14 0  0.39 0.14 0  0.42 0.14 0  0.45 0.14 0  0.48 0.14 0  0.51 0.14 0  0.54 0.14 0  0.57 0.14 0  0.6 0.14 0  0.63 0.14 0  0.66 0.14 0  0.6899999999999999 0.14 0  0.72 0.14 0  0.75 0.14 0  0.78 0.14 0  0.8100000000000001 0.14 0  0.84 0.14 0  0.87 0.14 0  0.9 0.14 0  0.93 0.14 0  0.96 0.14 0  0.99 0.14 0  1.02 0.14 0  1.05 0.14 0  1.08 0.14 0  1.11 0.14 0  1.14 0.14 0  1.17 0.14 0  1.2 0.14 0  1.23 0.14 0  1.26 0.14 0  1.29 0.14 0  1.32 0.14 0  1.35 0.14 0  1.38 0.14 0  1.41 0.14 0  1.44 0.14 0  1.47 0.14 0  1.5 0.14 0  0 0.16 0  0.03 0.16 0  0.06 0.16 0  0.09 0.16 0  0.12 0.16 0  0.15 0.16 0  0.18 0.16 0  0.21 0.16 0  0.24 0.16 0  0.27 0.16 0  0.3 0.16 0  0.33 0.16 0  0.36 0.16 0  0.39 0.16 0  0.42 0.16 0  0.45 0.16 0  0.48 0.16 0  0.51 0.16 0  0.54 0.16 0  0.57 0.16 0  0.6 0.16 0  0.63 0.16 0  0.66 0.16 0  0.6899999999999999 0.16 0  0.72 0.16 0  0.75 0.16 0  0.78 0.16 0  0.8100000000000001 0.16 0  0.84 0.16 0  0.87 0.16 0  0.9 0.16 0  0.93 0.16 0  0.96 0.16 0  0.99 0.16 0  1.02 0.16 0  1.05 0.16 0  1.08 0.16 0  1.11 0.16 0  1.14 0.16 0  1.17 0.16 0  1.2 0.16 0  1.23 0.16 0  1.26 0.16 0  1.29 0.16 0  1.32 0.16 0  1.35 0.16 0  1.38 0.16 0  1.41 0.16 0  1.44 0.16 0  1.47 0.16 0  1.5 0.16 0  0 0.18 0  0.03 0.18 0  0.06 0.18 0  0.09 0.18 0  0.12 0.18 0  0.15 0.18 0  0.18 0.18 0  0.21 0.18 0  0.24 0.18 0  0.27 0.18 0  0.3 0.18 0  0.33 0.18 0  0.36 0.18 0  0.39 0.18 0  0.42 0.18 0  0.45 0.18 0  0.48 0.18 0  0.51 0.18 0  0.54 0.18 0  0.57 0.18 0  0.6 0.18 0  0.63 0.18 0  0.66 0.18 0  0.6899999999999999 0.18 0  0.72 0.18 0  0.75 0.18 0  0.78 0.18 0  0.8100000000000001 0.18 0  0.84 0.18 0  0.87 0.18 0  0.9 0.18 0  0.93 0.18 0  0.96 0.18 0  0.99 0.18 0  1.02 0.18 0  1.05 0.18 0  1.08 0.18 0  1.11 0.18 0  1.14 0.18 0  1.17 0.18 0  1.2 0.18 0  1.23 0.18 0  1.26 0.18 0  1.29 0.18 0  1.32 0.18 0  1.35 0.18 0  1.38 0.18 0  1.41 0.18 0  1.44 0.18 0  1.47 0.18 0  1.5 0.18 0  0 0.2 0  0.03 0.2 0  0.06 0.2 0  0.09 0.2 0  0.12 0.2 0  0.15 0.2 0  0.18 0.2 0  0.21 0.2 0  0.24 0.2 0  0.27 0.2 0  0.3 0.2 0  0.33 0.2 0  0.36 0.2 0  0.39 0.2 0  0.42 0.2 0  0.45 0.2 0  0.48 0.2 0  0.51 0.2 0  0.54 0.2 0  0.57 0.2 0  0.6 0.2 0  0.63 0.2 0  0.66 0.2 0  0.6899999999999999 0.2 0  0.72 0.2 0  0.75 0.2 0  0.78 0.2 0  0.8100000000000001 0.2 0  0.84 0.2 0  0.87 0.2 0  0.9 0.2 0  0.93 0.2 0  0.96 0.2 0  0.99 0.2 0  1.02 0.2 0  1.05 0.2 0  1.08 0.2 0  1.11 0.2 0  1.14 0.2 0  1.17 0.2 0  1.2 0.2 0  1.23 0.2 0  1.26 0.2 0  1.29 0.2 0  1.32 0.2 0  1.35 0.2 0  1.38 0.2 0  1.41 0.2 0  1.44 0.2 0  1.47 0.2 0  1.5 0.2 0  0 0.22 0  0.03 0.22 0  0.06 0.22 0  0.09 0.22 0  0.12 0.22 0  0.15 0.22 0  0.18 0.22 0  0.21 0.22 0  0.24 0.22 0  0.27 0.22 0  0.3 0.22 0  0.33 0.22 0  0.36 0.22 0  0.39 0.22 0  0.42 0.22 0  0.45 0.22 0  0.48 0.22 0  0.51 0.22 0  0.54 0.22 0  0.57 0.22 0  0.6 0.22 0  0.63 0.22 0  0.66 0.22 0  0.6899999999999999 0.22 0  0.72 0.22 0  0.75 0.22 0  0.78 0.22 0  0.8100000000000001 0.22 0  0.84 0.22 0  0.87 0.22 0  0.9 0.22 0  0.93 0.22 0  0.96 0.22 0  0.99 0.22 0  1.02 0.22 0  1.05 0.22 0  1.08 0.22 0  1.11 0.22 0  1.14 0.22 0  1.17 0.22 0  1.2 0.22 0  1.23 0.22 0  1.26 0.22 0  1.29 0.22 0  1.32 0.22 0  1.35 0.22 0  1.38 0.22 0  1.41 0.22 0  1.44 0.22 0  1.47 0.22 0  1.5 0.22 0  0 0.24 0  0.03 0.24 0  0.06 0.24 0  0.09 0.24 0  0.12 0.24 0  0.15 0.24 0  0.18 0.24 0  0.21 0.24 0  0.24 0.24 0  0.27 0.24 0  0.3 0.24 0  0.33 0.24 0  0.36 0.24 0  0.39 0.24 0  0.42 0.24 0  0.45 0.24 0  0.48 0.24 0  0.51 0.24 0  0.54 0.24 0  0.57 0.24 0  0.6 0.24 0  0.63 0.24 0  0.66 0.24 0  0.6899999999999999 0.24 0  0.72 0.24 0  0.75 0.24 0  0.78 0.24 0  0.8100000000000001 0.24 0  0.84 0.24 0  0.87 0.24 0  0.9 0.24 0  0.93 0.24 0  0.96 0.24 0  0.99 0.24 0  1.02 0.24 0  1.05 0.24 0  1.08 0.24 0  1.11 0.24 0  1.14 0.24 0  1.17 0.24 0  1.2 0.24 0  1.23 0.24 0  1.26 0.24 0  1.29 0.24 0  1.32 0.24 0  1.35 0.24 0  1.38 0.24 0  1.41 0.24 0  1.44 0.24 0  1.47 0.24 0  1.5 0.24 0  0 0.26 0  0.03 0.26 0  0.06 0.26 0  0.09 0.26 0  0.12 0.26 0  0.15 0.26 0  0.18 0.26 0  0.21 0.26 0  0.24 0.26 0  0.27 0.26 0  0.3 0.26 0  0.33 0.26 0  0.36 0.26 0  0.39 0.26 0  0.42 0.26 0  0.45 0.26 0  0.48 0.26 0  0.51 0.26 0  0.54 0.26 0  0.57 0.26 0  0.6 0.26 0  0.63 0.26 0  0.66 0.26 0  0.6899999999999999 0.26 0  0.72 0.26 0  0.75 0.26 0  0.78 0.26 0  0.8100000000000001 0.26 0  0.84 0.26 0  0.87 0.26 0  0.9 0.26 0  0.93 0.26 0  0.96 0.26 0  0.99 0.26 0  1.02 0.26 0  1.05 0.26 0  1.08 0.26 0  1.11 0.26 0  1.14 0.26 0  1.17 0.26 0  1.2 0.26 0  1.23 0.26 0  1.26 0.26 0  1.29 0.26 0  1.32 0.26 0  1.35 0.26 0  1.38 0.26 0  1.41 0.26 0  1.44 0.26 0  1.47 0.26 0  1.5 0.26 0  0 0.28 0  0.03 0.28 0  0.06 0.28 0  0.09 0.28 0  0.12 0.28 0  0.15 0.28 0  0.18 0.28 0  0.21 0.28 0  0.24 0.28 0  0.27 0.28 0  0.3 0.28 0  0.33 0.28 0  0.36 0.28 0  0.39 0.28 0  0.42 0.28 0  0.45 0.28 0  0.48 0.28 0  0.51 0.28 0  0.54 0.28 0  0.57 0.28 0  0.6 0.28 0  0.63 0.28 0  0.66 0.28 0  0.6899999999999999 0.28 0  0.72 0.28 0  0.75 0.28 0  0.78 0.28 0  0.8100000000000001 0.28 0  0.84 0.28 0  0.87 0.28 0  0.9 0.28 0  0.93 0.28 0  0.96 0.28 0  0.99 0.28 0  1.02 0.28
[...]
<PointData  Scalars="sensitivity"> 
<DataArray  type="Float64"  Name="sensitivity"  format="ascii">-1.3041982514833429e-06  -1.8493808520817850e-05  -7.7019624041492745e-05  -1.9594937689218232e-04  -3.7564089963724833e-04  -5.9350125632767899e-04  -8.1740472340965063e-04  -1.0200006474771523e-03  -1.1851539255967941e-03  -1.3074587542020253e-03  -1.3884694801434285e-03  -1.4332171404249701e-03  -1.4482085285936015e-03  -1.4403534474520040e-03  -1.4162535114746974e-03  -1.3817388712349500e-03  -1.3416587335363555e-03  -1.2998583330023179e-03  -1.2592502379924738e-03  -1.2219277080894981e-03  -1.1893045096581162e-03  -1.1622719340781105e-03  -1.1413546566240859e-03  -1.1268432785156376e-03  -1.1188894168787844e-03  -1.1175624469062057e-03  -1.1228759990048996e-03  -1.1347924882341262e-03  -1.1532070759668019e-03  -1.1779043412850356e-03  -1.2084780895991196e-03  -1.2442108573201688e-03  -1.2839225661648798e-03  -1.3258082756169318e-03  -1.3672861787138635e-03  -1.4048712867499649e-03  -1.4340963712571181e-03  -1.4495219121433520e-03  -1.4448922983119816e-03  -1.4134761189410884e-03  -1.3485287306819009e-03  -1.2440910552642805e-03  -1.0967423792924153e-03  -9.0864987014057546e-04  -6.9141540404249154e-04  -4.6757689896637778e-04  -2.6765269165625414e-04  -1.2079976953001063e-04  -3.8166993866561471e-05  -5.4750313759361926e-06  -5.2707621113459844e-08  -9.3782282038415274e-06  -7.5536254613976607e-05  -3.0077037025738471e-04  -7.9016848698791749e-04  -1.5630363909683170e-03  -2.5323864952805030e-03  -3.5561952423787159e-03  -4.5035283567734785e-03  -5.2908731221210994e-03  -5.8854972064965212e-03  -6.2895898105449132e-03  -6.5234313373622845e-03  -6.6154177834952428e-03  -6.5968002276244530e-03  -6.4981441901961210e-03  -6.3468825521936362e-03  -6.1661020572385252e-03  -5.9742991881099961e-03  -5.7856367967040658e-03  -5.6104142933253833e-03  -5.4556708628688676e-03  -5.3258916087579452e-03  -5.2237387393676048e-03  -5.1506967648543654e-03  -5.1075497481369329e-03  -5.0946740751376517e-03  -5.1121823181055782e-03  -5.1599634821455163e-03  -5.2376356295387389e-03  -5.3443844463483122e-03  -5.4786386774714245e-03  -5.6375539399373632e-03  -5.8163358020292752e-03  -6.0074949383465762e-03  -6.2001408944636965e-03  -6.3793796123293679e-03  -6.5258929760574780e-03  -6.6158579110194848e-03  -6.6215717780844334e-03  -6.5128451387199355e-03  -6.2589549429258517e-03  -5.8314653432278681e-03  -5.2110097093086361e-03  -4.3990602411856771e-03  -3.4359758007369303e-03  -2.4122225581288165e-03  -1.4583795867431522e-03  -7.1411331801469709e-04  -2.6085410759299661e-04  -6.2288066414811392e-05  -3.6016242065673379e-06  -2.7051421745570036e-05  -1.4690243659539734e-04  -4.3699946954112596e-04  -1.0520009718742549e-03  -1.9938061703939397e-03  -3.1428434306153058e-03  -4.3341021035214790e-03  -5.4206916793754873e-03  -6.3126923042456174e-03  -6.9797320360726030e-03  -7.4282406768033478e-03  -7.6817913926731408e-03  -7.7724244476429852e-03  -7.7360870657267201e-03  -7.6083382829867444e-03  -7.4210678794179230e-03  -7.2010225721132219e-03  -6.9696243524311318e-03  -6.7432935475305713e-03  -6.5339342902990252e-03  -6.3495822141138450e-03  -6.1952354295018441e-03  -6.0737629370806439e-03  -5.9867124565564818e-03  -5.9348885148100446e-03  -5.9186822732639581e-03  -5.9382183302267794e-03  -5.9933961337007170e-03  -6.0838539807912696e-03  -6.2088126434991430e-03  -6.3667144414935812e-03  -6.5546017312972460e-03  -6.7672739733726384e-03  -6.9963775075103998e-03  -7.2295802835587670e-03  -7.4498922121213722e-03  -7.6351793576640275e-03  -7.7579978202541346e-03  -7.7864181077315344e-03  -7.6855986539642726e-03  -7.4209505313947641e-03  -6.9595014823419154e-03  -6.2764446305224736e-03  -5.3656832621406698e-03  -4.2642615771930487e-03  -3.0717652097220741e-03  -1.9279812182238173e-03  -9.9351922645957332e-04  -3.9776464853758387e-04  -1.3064138885662583e-04  -1.6361045118047327e-05  -4.4261131926768645e-05  -2.4906457329151090e-04  -6.5040292809796796e-04  -1.4065436382065964e-03  -2.4507563176311875e-03  -3.6400021697891791e-03  -4.8267729712785168e-03  -5.8734114410429784e-03  -6.7058758204587929e-03  -7.3135540099207863e-03  -7.7109314908442583e-03  -7.9203312871428660e-03  -7.9716044238958249e-03  -7.9003351875088362e-03  -7.7423657201005644e-03  -7.5294650837846285e-03  -7.2879540110079022e-03  -7.0388879023575877e-03  -6.7984440380261541e-03  -6.5782497304039149e-03  -6.3859057587540820e-03  -6.2258500904440565e-03  -6.1004052579687485e-03  -6.0107109736204671e-03  -5.9573389355952735e-03  -5.9405815193832581e-03  -5.9605390839661552e-03  -6.0171400664507631e-03  -6.1101411760554267e-03  -6.2390358494563780e-03  -6.4027241421641895e-03  -6.5988338157611298e-03  -6.8227388072865667e-03  -7.0665319696823665e-03  -7.3181869463158928e-03  -7.5610132836136700e-03  -7.7731698936319175e-03  -7.9272681711492106e-03  -7.9911146091210840e-03  -7.9301038779149534e-03  -7.7135696542622477e-03  -7.3088295393479137e-03  -6.6874504300493244e-03  -5.8340585340514823e-03  -4.7647286647173629e-03  -3.5757567925501065e-03  -2.3873078753380273e-03  -1.3312069429664032e-03  -5.7880157067993461e-04  -2.1197479484226392e-04  -3.4290295171407280e-05  -4.1170091258640856e-05  -3.7464405172639334e-04  -1.0708857140535586e-03  -2.1169086127341540e-03  -3.2649527560806952e-03  -4.4336782705981176e-03  -5.5623981080664860e-03  -6.5019419286892512e-03  -7.2108187784184269e-03  -7.7135733857079149e-03  -8.0285285729317160e-03  -8.1691815665126347e-03  -8.1600925388838220e-03  -8.0367323587429984e-03  -7.8354443013542354e-03  -7.5871994431177770e-03  -7.3170333354068513e-03  -7.0450921840161497e-03  -6.7870392402954657e-03  -6.5539882175782559e-03  -6.3527572639871886e-03  -6.1867965361718695e-03  -6.0574996383014118e-03  -5.9653543718282947e-03  -5.9105980305798984e-03  -5.8934046963475982e-03  -5.9138480743222621e-03  -5.9718767596058219e-03  -6.0673846276171148e-03  -6.2002542643526332e-03  -6.3701093531789432e-03  -6.5755549283025762e-03  -6.8129454135710419e-03  -7.0751087756314055e-03  -7.3505859573901496e-03  -7.6233966848880067e-03  -7.8723247677198564e-03  -8.0705589303359266e-03  -8.1856610092390734e-03  -8.1849089063589543e-03  -8.0405763375392906e-03  -7.7249961796272814e-03  -7.2108028755844440e-03  -6.4914629635875595e-03  -5.5125562361122028e-03  -4.3848031808733871e-03  -3.2388952536891980e-03  -2.0505300370314062e-03  -9.5957363052371139e-04  -2.8037249490211444e-04  -4.0985022507480669e-05  -4.5284853007183323e-05  -7.0893878080817451e-04  -2.6699847119751319e-03  -5.0121352480165405e-03  -5.9996028516187214e-03  -6.3999897232837957e-03  -6.9061058326896413e-03  -7.4355258665292330e-03  -7.8884936089994081e-03  -8.2328081596100503e-03  -8.4408071768764491e-03  -8.4918799343619931e-03  -8.4014779406526192e-03  -8.2079466373003746e-03  -7.9494275399911909e-03  -7.6550693887637369e-03  -7.3475231895467012e-03  -7.0456688959226197e-03  -6.7647205701525338e-03  -6.5152784796547276e-03  -6.3030702111199974e-03  -6.1300439932327096e-03  -5.9961991003307791e-03  -5.9011202346403620e-03  -5.8446642881016340e-03  -5.8269308173885580e-03  -5.8479878667436836e-03  -5.9077622149857128e-03  -6.0062382890242755e-03  -6.1437616536732988e-03  -6.3209764023494201e-03  -6.5379599664682425e-03  -6.7925456032520391e-03  -7.0785030038402735e-03  -7.3850725527075606e-03  -7.6968834185095160e-03  -7.9939376243002031e-03  -8.2519641588228981e-03  -8.4358540360601874e-03  -8.5128598161919849e-03  -8.4487270901747649e-03  -8.2934930516066242e-03  -7.9822823658874508e-03  -7.6446071267937026e-03  -7.2032956363385142e-03  -6.8528383948336276e-03  -6.3426832355106960e-03  -4.3701979830782500e-03  -1.8911871612237697e-03  -3.8670393320394767e-04  -2.7518929090187614e-05  -5.9557687986829531e-04  -3.0375575081809303e-03  -1.0716156432515608e-02  -1.9675983667197333e-02  -2.2406087074634803e-02  -1.8559719644948229e-02  -1.3458568387481325e-02  -1.0054086897627710e-02  -8.9585634180596990e-03  -8.9039864689038038e-03  -8.9576360620361763e-03  -8.8955318696433590e-03  -8.6986311270311374e-03  -8.4146692547063719e-03  -8.0852743796984913e-03  -7.7345961834079839e-03  -7.3810256078423670e-03  -7.0419893773175316e-03  -6.7327337229147900e-03  -6.4635955569235428e-03  -6.2388174390371970e-03  -6.0580672339462299e-03  -5.9192883456676039e-03  -5.8208893494147602e-03  -5.7624012352274247e-03  -5.7440035624030323e-03  -5.7658199646390398e-03  -5.8276548996547680e-03  -5.9294155433227943e-03  -6.0718975625889309e-03  -6.2571219648941594e-03  -6.4873601648841152e-03  -6.7627089213627735e-03  -7.0779976808423451e-03  -7.4228931289831695e-03  -7.7822870152164077e-03  -8.1406341058103977e-03  -8.4749122204510838e-03  -8.7426051242008081e-03  -8.9217376510563502e-03  -8.9791756285950170e-03  -9.1777208222089939e-03  -9.5181411212285592e-03  -1.1074313398054815e-02  -1.3785960647615196e-02  -1.7907771027419767e-02  -2.2266021308464907e-02  -2.0276838528717884e-02  -1.1913950247185627e-02  -2.5282243128522935e-03  -9.3202568711386286e-05  -1.8125552842129711e-03  -1.8758377087420914e-02  -3.1514662205255596e-02  -3.1517595045318994e-02  -3.1514676268671334e-02  -3.1511437817006299e-02  -3.1504183356274071e-02  -2.5013023806972776e-02  -1.4398552739237435e-02  -1.0396076685151355e-02  -9.6675422511243950e-03  -9.3992483219287222e-03  -9.0504050489586940e-03  -8.6518174863430639e-03  -8.2396127250916919e-03  -7.8237190701202740e-03  -7.4155770070511709e-03  -7.0316221021473630e-03  -6.6883972848221940e-03  -6.3967000234857428e-03  -6.1586702639078242e-03  -5.9703990718513568e-03  -5.8267810757149426e-03  -5.7247796496946680e-03  -5.6638624326219170e-03  -5.6446412829232670e-03  -5.6674269892663604e-03  -5.7317032130735322e-03  -5.8369028450895033e-03  -5.9840824622685550e-03  -6.1770683283880034e-03  -6.4213880284248919e-03  -6.7207647604245356e-03  -7.0711702225494050e-03  -7.4616099285509307e-03  -7.8781012789031733e-03  -8.3097822089617732e-03  -8.7298203719931387e-03  -9.1317963084993955e-03  -9.4832412362393734e-03  -9.8490909219676043e-03  -1.1609363758359876e-02  -1.5072082488455813e-02  -2.3211875161693016e-02  -3.1510857380730506e-02  -3.1513778118916390e-02  -3.1513075965148650e-02  -3.1514490995832714e-02  -3.1511169564558114e-02  -1.9161424131678362e-02  -1.7578990780528906e-03  -9.4181465675202223e-03  -3.1519506713531119e-02  -3.1519513713649611e-02  -3.1519473294719352e-02  -3.1519541189335643e-02  -3.1520118731862640e-02  -3.1518792373630089e-02  -3.1510773624326242e-02  -3.1490379639784911e-02  -1.9235424422549885e-02  -1.2025975735947544e-02  -1.0163945511072959e-02  -9.4670270196241888e-03  -8.9114514962050188e-03  -8.4093045421135479e-03  -7.9207846514449728e-03  -7.4492877061704795e-03  -7.0115006582995992e-03  -6.6278816657626520e-03  -6.3114036822004040e-03  -6.0609065081872384e-03  -5.8666082200651221e-03  -5.7188300068380842e-03  -5.6129130148297396e-03  -5.5489424170656635e-03  -5.5286423014635393e-03  -5.5527582254695142e-03  -5.6201101271761865e-03  -5.7288391810537461e-03  -5.8797350810481210e-03  -6.0788437597038168e-03  -6.3365859680458905e-03  -6.6630163876582266e-03  -7.0560324965687560e-03  -7.4988711856661325e-03  -7.9825354269378139e-03  -8.4889597115064778e-03  -9.0434293571723216e-03  -9.7025760379651597e-03  -1.0594626841802136e-02  -1.2914519720778599e-02  -1.9216873644358475e-02  -3.1439615915708173e-02  -3.1502693729069886e-02  -3.1519865173454481e-02  -3.1521552596234098e-02  -3.1519141706715506e-02  -3.1518264964694807e-02  -3.1517669642716732e-02  -3.1519270213169963e-02  -7.1386952942252713e-03  -1.5756120555145078e-02  -3.1524856514407590e-02  -3.1522591500622477e-02  -3.1520415773978780e-02  -3.1520213841026080e-02  -3.1520048431228014e-02  -3.1519488166201141e-02  -3.1520291231426079e-02  -3.1517302024191958e-02  -3.1502793027767637e-02  -2.4619002714425513e-02  -1.3786679936218207e-02  -1.0201216443760307e-02  -9.2211871958004735e-03  -8.6003031812348987e-03  -8.0265422142424530e-03  -7.4815812516183990e-03  -6.9783222121441273e-03  -6.5458547136640031e-03  -6.2034467166169269e-03  -5.9437118460197811e-03  -5.7468154516103469e-03  -5.5961891106182347e-03  -5.4856775802056557e-03  -5.4174828406752269e-03  -5.3956407919757048e-03  -5.4217510140776321e-03  -5.4934627953956748e-03  -5.6060422901458963e-03  -5.7588038367320533e-03  -5.9602965461510969e-03  -6.2286764239557306e-03  -6.5843350708715727e-03  -7.0317390000926615e-03  -7.5308609474366173e-03  -8.1038838499515702e-03  -8.6994422890412544e-03  -9.5417460413159925e-03  -1.1203233285367591e-02  -1.4495315948469921e-02  -2.3026946528748884e-02  -3.1533116472293087e-02  -3.1524179124426760e-02  -3.1518116454672424e-02  -3.1517836026501857e-02  -3.1520534497429670e-02  -3.1520931784561855e-02  -3.1520847919116947e-02  -3.1523754984370822e-02  -3.1525343143545610e-02  -1.5761737425442065e-02  -1.8325809025224758e-02  -3.1539520098181346e-02  -3.1518663098098032e-02  -3.1521720170437598e-02  -3.1521354547491040e-02  -3.1520760290128923e-02  -3.1520139734326665e-02  -3.1519624047000989e-02  -3.1520504855193116e-02  -3.1520497361165661e-02  -3.1515455554508215e-02  -3.0475752167452057e-02  -1.5590935432349835e-02  -1.0290890368147246e-02  -8.9287015752712150e-03  -8.1603295109127193e-03  -7.5206016255465391e-03  -6.9309570948082252e-03  -6.4352687957842901e-03  -6.0679222790572347e-03  -5.8060687465227344e-03  -5.6127254724442251e-03  -5.4610560229717475e-03  -5.3441501114636844e-03  -5.2694865633103683e-03  -5.2453609667958805e-03  -5.2745880690460260e-03  -5.3532969504231556e-03  -5.4709386232540532e-03  -5.6227580346731761e-03  -5.8202680272752575e-03  -6.0933346645307357e-03  -6.4768116946917406e-03  -7.0095337341954016e-03  -7.5804287749049650e-03  -8.3036402285447501e-03  -9.1813560437390453e-03  -1.1662543570784010e-02  -1.6356206065187284e-02  -2.7508744060999624e-02  -3.1499405764465090e-02  -3.1522194312335362e-02  -3.1521446023222009e-02  -3.1520293977450382e-02  -3.1520598284126053e-02  -3.1521598065134583e-02  -3.1521093417338136e-02  -3.1520514190208709e-02  -3.1522581191941935e-02  -3.1812879158933050e-02  -1.6625974427431932e-02  -2.8533070299504928e-02  -4.6138840083048124e-02  -3.5624940133484412e-02  -3.1522748991602678e-02  -3.1519943841870908e-02  -3.1521053407146990e-02  -3.1520968195166907e-02  -3.1520494010141668e-02  -3.1519704215433424e-02  -3.1519353409495049e-02  -3.1520256187083283e-02  -3.1511583762676564e-02  -3.1491120469217072e-02  -1.9097491425513126e-02  -1.1373119971508652e-02  -8.7054313363042930e-03  -7.6942926560454334e-03  -6.9130237446454025e-03  -6.3085764849173612e-03  -5.9145758644398331e-03  -5.6583377014064618e-03  -5.4760454213895957e-03  -5.3240300946328159e-03  -5.1956852986955980e-03  -5.1103285116096782e-03  -5.0827801445878515e-03  -5.1165754433862782e-03  -5.2085339410316992e-03  -5.3363383157592412e-03  -5.4861167088365971e-03  -5.6751620900485841e-03  -5.9488696527783850e-03  -6.3670069950759155e-03  -7.0772086722462393e-03  -7.8603831867534255e-03  -9.4185759136524924e-03  -1.2433619475745061e-02  -1.8967988758287195e-02  -3.1416270781229577e-02  -3.1510643068951932e-02  -3.1517883655854062e-02  -3.1517904696916489e-02  -3.1521024854466374e-02  -3.1521269545666281e-02  -3.1521271789836970e-02  -3.1520214473021300e-02  -3.1519325409113313e-02  -3.1523059671609628e-02  -3.7739398174801819e-02  -4.7930971416918620e-02  -2.5075489145972209e-02  -3.5080418692335379e-02  -6.0547083223625987e-02  -4.6020077202389896e-02  -3.5289051382341771e-02  -3.1521219046479823e-02  -3.1520056201003017e-02  -3.1520391862189863e-02  -3.1520929769568135e-02  -3.1520776731633428e-02  -3.1519773288866300e-02  -3.1518571390109232e-02  -3.1520150540976843e-02  -3.1517733933712280e-02  -3.1503531774111325e-02  -2.6605102170666368e-02  -1.5729106025285482e-02  -1.0375428914490503e-02  -7.8689583347406299e-03  -6.6738534919661757e-03  -6.0652303549323721e-03  -5.7175548568371695e-03  -5.4968562935192849e-03  -5.3141217459540362e-03  -5.1518536756850284e-03  -5.0454476191739593e-03  -5.0129042035274782e-03  -5.0554967532823467e-03  -5.1791678246555792e-03  -5.3460046533112373e-03  -5.5362297562270872e-03  -5.7951795154876874e-03  -6.2117331006620088e-03  -6.9524258080557438e-03  -8.7058897550914699e-03  -1.1292357517499541e-02  -1.5549155667632797e-02  -2.5143500178781517e-02  -3.1487091292204214e-02  -3.1522239394237761e-02  -3.1518768981843422e-02  -3.1518877721727331e-02  -3.1520623750292520e-02  -3.1521290409725247e-02  -3.1521025708297505e-02  -3.1520340377564342e-02  -3.1519604364409558e-02  -3.1523276247721374e-02  -3.6357437905874763e-02  -4.6458736445598739e-02  -6.0499649364482544e-02  -3.3666379301803322e-02  -3.4014046802349797e-02  -6.2913800305340772e-02  -5.0483707820066434e-02  -3.9846835043229119e-02  -3.2802190374022593e-02  -3.1519818248213698e-02  -3.1519519876195785e-02  -3.1519988374491492e-02  -3.1520826070245991e-02  -3.1520999641516417e-02  -3.1519967850222541e-02  -3.1518526984602682e-02  -3.1520609393266251e-02  -3.1518210461571904e-02  -3.1510104458144013e-02  -3.1516660953590535e-02  -2.8240366904464066e-02  -1.9378489843445170e-02  -1.4288861912658450e-02  -1.1657593834309627e-02  -1.0088220546267155e-02  -9.1173260734639331e-03  -8.4336672163236263e-03  -7.9625772289694512e-03  -7.7288396302298010e-03  -7.6761948337802088e-03  -7.7843729264377246e-03  -8.1066273174821499e-03  -8.5776522630368526e-03  -9.2002097416078402e-03  -1.0167387871429094e-02  -1.1699778207093536e-02  -1.4203563108370754e-02  -1.8942163204282277e-02  -2.7385350990114257e-02  -3.1485411631129528e-02  -3.1509705095374790e-02  -3.1519872979214679e-02  -3.1518311277412163e-02  -3.1520793752794561e-02  -3.1520882405609692e-02  -3.1521247605309374e-02  -3.1520428754967675e-02  -3.1520702550684752e-02  -3.1519486152169249e-02  -3.1521202606788347e-02  -3.3329418802868979e-02  -3.9793593998651310e-02  -4.9833455388769016e-02  -6.2143489128734263e-02  -3.5179888227982903e-02  -2.5773047458718903e-02  -5.2482800362679854e-02  -4.5938561626309722e-02  -3.9539583279017361e-02  -3.4225429715365567e-02  -3.1521523728828139e-02  -3.1519460381647782e-02  -3.1518855810414595e-02  -3.1519667709784677e-02  -3.1520799210916731e-02  -3.1521254868587499e-02  -3.1520379254934616e-02  -3.1518610377740779e-02  -3.1518675989380150e-02  -3.1520292195538931e-02  -3.1520608875724013e-02  -3.1517093948334116e-02  -3.1508026720532552e-02  -3.1517874362830385e-02  -3.1488527820916955e-02  -3.1472501544437800e-02  -3.1400113638503285e-02  -3.0982725228626273e-02  -2.9810762827721157e-02  -2.9002654791422864e-02  -2.8743649011487366e-02  -2.8954891532428199e-02  -2.9709543244351256e-02  -3.0881578157538468e-02  -3.1385943080225014e-02  -3.1473125231983090e-02  -3.1500741398717488e-02  -3.1504462199446193e-02  -3.1518532006414912e-02  -3.1517797300460663e-02  -3.1521734231412961e-02  -3.1519508161197828e-02  -3.1518104904485748e-02  -3.1520633844877168e-02  -3.1521283263980356e-02  -3.1521458527668057e-02  -3.1520530917806495e-02  -3.1519499375535727e-02  -3.1520156533251666e-02  -3.1518051836834850e-02  -3.1523917065400642e-02  -3.4121128926472642e-02  -3.8784213796407806e-02  -4.4794628052300910e-02  -5.1203614203559247e-02  -2.9053047906737375e-02  -1.6698601916951092e-02  -3.6184472104017353e-02  -3.5935596099641594e-02  -3.4728617035748754e-02  -3.2987750192996816e-02  -3.1528256850300647e-02  -3.1517900623997744e-02  -3.1518937764072649e-02  -3.1518544938902757e-02  -3.1519556008316338e-02  -3.1520828229351441e-02  -3.1521573560275407e-02  -3.1521107714354693e-02  -3.1519557194990937e-02  -3.1518541327069952e-02  -3.1518851473131736e-02  -3.1520034368511793e-02  -3.1520810110704532e-02  -3.1522257726840634e-02  -3.1521985403542355e-02  -3.1520131395378286e-02  -3.1520685008112087e-02  -3.1519767472184865e-02  -3.1520223438336353e-02  -3.1519829365306742e-02  -3.1520130958911041e-02  -3.1520000354646686e-02  -3.1519731166718884e-02  -3.1520051817666810e-02  -3.1519681323399933e-02  -3.1520361531866853e-02  -