<?xml version="1.0"?>
<VTKFile type="UnstructuredGrid"  version="0.1"  >
<UnstructuredGrid>
<Piece  NumberOfPoints="2601" NumberOfCells="5000">
<Points>
<DataArray  type="Float64"  NumberOfComponents="3"  format="ascii">0 0 0  0.03 0 0  0.06 0 0  0.09 0 0  0.12 0 0  0.15 0 0  0.18 0 0  0.21 0 0  0.24 0 0  0.27 0 0  0.3 0 0  0.33 0 0  0.36 0 0  0.39 0 0  0.42 0 0  0.45 0 0  0.48 0 0  0.51 0 0  0.54 0 0  0.57 0 0  0.6 0 0  0.63 0 0  0.66 0 0  0.6899999999999999 0 0  0.72 0 0  0.75 0 0  0.78 0 0  0.8100000000000001 0 0  0.84 0 0  0.87 0 0  0.9 0 0  0.93 0 0  0.96 0 0  0.99 0 0  1.02 0 0  1.05 0 0  1.08 0 0  1.11 0 0  1.14 0 0  1.17 0 0  1.2 0 0  1.23 0 0  1.26 0 0  1.29 0 0  1.32 0 0  1.35 0 0  1.38 0 0  1.41 0 0  1.44 0 0  1.47 0 0  1.5 0 0  0 0.02 0  0.03 0.02 0  0.06 0.02 0  0.09 0.02 0  0.12 0.02 0  0.15 0.02 0  0.18 0.02 0  0.21 0.02 0  0.24 0.02 0  0.27 0.02 0  0.3 0.02 0  0.33 0.02 0  0.36 0.02 0  0.39 0.02 0  0.42 0.02 0  0.45 0.02 0  0.48 0.02 0  0.51 0.02 0  0.54 0.02 0  0.57 0.02 0  0.6 0.02 0  0.63 0.02 0  0.66 0.02 0  0.6899999999999999 0.02 0  0.72 0.02 0  0.75 0.02 0  0.78 0.02 0  0.8100000000000001 0.02 0  0.84 0.02 0  0.87 0.02 0  0.9 0.02 0  0.93 0.02 0  0.96 0.02 0  0.99 0.02 0  1.02 0.02 0  1.05 0.02 0  1.08 0.02 0  1.11 0.02 0  1.14 0.02 0  1.17 0.02 0  1.2 0.02 0  1.23 0.02 0  1.26 0.02 0  1.29 0.02 0  1.32 0.02 0  1.35 0.02 0  1.38 0.02 0  1.41 0.02 0  1.44 0.02 0  1.47 0.02 0  1.5 0.02 0  0 0.04 0  0.03 0.04 0  0.06 0.04 0  0.09 0.04 0  0.12 0.04 0  0.15 0.04 0  0.18 0.04 0  0.21 0.04 0  0.24 0.04 0  0.27 0.04 0  0.3 0.04 0  0.33 0.04 0  0.36 0.04 0  0.39 0.04 0  0.42 0.04 0  0.45 0.04 0  0.48 0.04 0  0.51 0.04 0  0.54 0.04 0  0.57 0.04 0  0.6 0.04 0  0.63 0.04 0  0.66 0.04 0  0.6899999999999999 0.04 0  0.72 0.04 0  0.75 0.04 0  0.78 0.04 0  0.8100000000000001 0.04 0  0.84 0.04 0  0.87 0.04 0  0.9 0.04 0  0.93 0.04 0  0.96 0.04 0  0.99 0.04 0  1.02 0.04 0  1.05 0.04 0  1.08 0.04 0  1.11 0.04 0  1.14 0.04 0  1.17 0.04 0  1.2 0.04 0  1.23 0.04 0  1.26 0.04 0  1.29 0.04 0  1.32 0.04 0  1.35 0.04 0  1.38 0.04 0  1.41 0.04 0  1.44 0.04 0  1.47 0.04 0  1.5 0.04 0  0 0.06 0  0.03 0.06 0  0.06 0.06 0  0.09 0.06 0  0.12 0.06 0  0.15 0.06 0  0.18 0.06 0  0.21 0.06 0  0.24 0.06 0  0.27 0.06 0  0.3 0.06 0  0.33 0.06 0  0.36 0.06 0  0.39 0.06 0  0.42 0.06 0  0.45 0.06 0  0.48 0.06 0  0.51 0.06 0  0.54 0.06 0  0.57 0.06 0  0.6 0.06 0  0.63 0.06 0  0.66 0.06 0  0.6899999999999999 0.06 0  0.72 0.06 0  0.75 0.06 0  0.78 0.06 0  0.8100000000000001 0.06 0  0.84 0.06 0  0.87 0.06 0  0.9 0.06 0  0.93 0.06 0  0.96 0.06 0  0.99 0.06 0  1.02 0.06 0  1.05 0.06 0  1.08 0.06 0  1.11 0.06 0  1.14 0.06 0  1.17 0.06 0  1.2 0.06 0  1.23 0.06 0  1.26 0.06 0  1.29 0.06 0  1.32 0.06 0  1.35 0.06 0  1.38 0.06 0  1.41 0.06 0  1.44 0.06 0  1.47 0.06 0  1.5 0.06 0  0 0.08 0  0.03 0.08 0  0.06 0.08 0  0.09 0.08 0  0.12 0.08 0  0.15 0.08 0  0.18 0.08 0  0.21 0.08 0  0.24 0.08 0  0.27 0.08 0  0.3 0.08 0  0.33 0.08 0  0.36 0.08 0  0.39 0.08 0  0.42 0.08 0  0.45 0.08 0  0.48 0.08 0  0.51 0.08 0  0.54 0.08 0  0.57 0.08 0  0.6 0.08 0  0.63 0.08 0  0.66 0.08 0  0.6899999999999999 0.08 0  0.72 0.08 0  0.75 0.08 0  0.78 0.08 0  0.8100000000000001 0.08 0  0.84 0.08 0  0.87 0.08 0  0.9 0.08 0  0.93 0.08 0  0.96 0.08 0  0.99 0.08 0  1.02 0.08 0  1.05 0.08 0  1.08 0.08 0  1.11 0.08 0  1.14 0.08 0  1.17 0.08 0  1.2 0.08 0  1.23 0.08 0  1.26 0.08 0  1.29 0.08 0  1.32 0.08 0  1.35 0.08 0  1.38 0.08 0  1.41 0.08 0  1.44 0.08 0  1.47 0.08 0  1.5 0.08 0  0 0.1 0  0.03 0.1 0  0.06 0.1 0  0.09 0.1 0  0.12 0.1 0  0.15 0.1 0  0.18 0.1 0  0.21 0.1 0  0.24 0.1 0  0.27 0.1 0  0.3 0.1 0  0.33 0.1 0  0.36 0.1 0  0.39 0.1 0  0.42 0.1 0  0.45 0.1 0  0.48 0.1 0  0.51 0.1 0  0.54 0.1 0  0.57 0.1 0  0.6 0.1 0  0.63 0.1 0  0.66 0.1 0  0.6899999999999999 0.1 0  0.72 0.1 0  0.75 0.1 0  0.78 0.1 0  0.8100000000000001 0.1 0  0.84 0.1 0  0.87 0.1 0  0.9 0.1 0  0.93 0.1 0  0.96 0.1 0  0.99 0.1 0  1.02 0.1 0  1.05 0.1 0  1.08 0.1 0  1.11 0.1 0  1.14 0.1 0  1.17 0.1 0  1.2 0.1 0  1.23 0.1 0  1.26 0.1 0  1.29 0.1 0  1.32 0.1 0  1.35 0.1 0  1.38 0.1 0  1.41 0.1 0  1.44 0.1 0  1.47 0.1 0  1.5 0.1 0  0 0.12 0  0.03 0.12 0  0.06 0.12 0  0.09 0.12 0  0.12 0.12 0  0.15 0.12 0  0.18 0.12 0  0.21 0.12 0  0.24 0.12 0  0.27 0.12 0  0.3 0.12 0  0.33 0.12 0  0.36 0.12 0  0.39 0.12 0  0.42 0.12 0  0.45 0.12 0  0.48 0.12 0  0.51 0.12 0  0.54 0.12 0  0.57 0.12 0  0.6 0.12 0  0.63 0.12 0  0.66 0.12 0  0.6899999999999999 0.12 0  0.72 0.12 0  0.75 0.12 0  0.78 0.12 0  0.8100000000000001 0.12 0  0.84 0.12 0  0.87 0.12 0  0.9 0.12 0  0.93 0.12 0  0.96 0.12 0  0.99 0.12 0  1.02 0.12 0  1.05 0.12 0  1.08 0.12 0  1.11 0.12 0  1.14 0.12 0  1.17 0.12 0  1.2 0.12 0  1.23 0.12 0  1.26 0.12 0  1.29 0.12 0  1.32 0.12 0  1.35 0.12 0  1.38 0.12 0  1.41 0.12 0  1.44 0.12 0  1.47 0.12 0  1.5 0.12 0  0 0.14 0  0.03 0.14 0  0.06 0.14 0  0.09 0.14 0  0.12 0.14 0  0.15 0.14 0  0.18 0.14 0  0.21 0.14 0  0.24 0.14 0  0.27 0.14 0  0.3 0.14 0  0.33 0.14 0  0.36 0.14 0  0.39 0.14 0  0.42 0.14 0  0.45 0.14 0  0.48 0.14 0  0.51 0.14 0  0.54 0.14 0  0.57 0.14 0  0.6 0.14 0  0.63 0.14 0  0.66 0.14 0  0.6899999999999999 0.14 0  0.72 0.14 0  0.75 0.14 0  0.78 0.14 0  0.8100000000000001 0.14 0  0.84 0.14 0  0.87 0.14 0  0.9 0.14 0  0.93 0.14 0  0.96 0.14 0  0.99 0.14 0  1.02 0.14 0  1.05 0.14 0  1.08 0.14 0  1.11 0.14 0  1.14 0.14 0  1.17 0.14 0  1.2 0.14 0  1.23 0.14 0  1.26 0.14 0  1.29 0.14 0  1.32 0.14 0  1.35 0.14 0  1.38 0.14 0  1.41 0.14 0  1.44 0.14 0  1.47 0.14 0  1.5 0.14 0  0 0.16 0  0.03 0.16 0  0.06 0.16 0  0.09 0.16 0  0.12 0.16 0  0.15 0.16 0  0.18 0.16 0  0.21 0.16 0  0.24 0.16 0  0.27 0.16 0  0.3 0.16 0  0.33 0.16 0  0.36 0.16 0  0.39 0.16 0  0.42 0.16 0  0.45 0.16 0  0.48 0.16 0  0.51 0.16 0  0.54 0.16 0  0.57 0.16 0  0.6 0.16 0  0.63 0.16 0  0.66 0.16 0  0.6899999999999999 0.16 0  0.72 0.16 0  0.75 0.16 0  0.78 0.16 0  0.8100000000000001 0.16 0  0.84 0.16 0  0.87 0.16 0  0.9 0.16 0  0.93 0.16 0  0.96 0.16 0  0.99 0.16 0  1.02 0.16 0  1.05 0.16 0  1.08 0.16 0  1.11 0.16 0  1.14 0.16 0  1.17 0.16 0  1.2 0.16 0  1.23 0.16 0  1.26 0.16 0  1.29 0.16 0  1.32 0.16 0  1.35 0.16 0  1.38 0.16 0  1.41 0.16 0  1.44 0.16 0  1.47 0.16 0  1.5 0.16 0  0 0.18 0  0.03 0.18 0  0.06 0.18 0  0.09 0.18 0  0.12 0.18 0  0.15 0.18 0  0.18 0.18 0  0.21 0.18 0  0.24 0.18 0  0.27 0.18 0  0.3 0.18 0  0.33 0.18 0  0.36 0.18 0  0.39 0.18 0  0.42 0.18 0  0.45 0.18 0  0.48 0.18 0  0.51 0.18 0  0.54 0.18 0  0.57 0.18 0  0.6 0.18 0  0.63 0.18 0  0.66 0.18 0  0.6899999999999999 0.18 0  0.72 0.18 0  0.75 0.18 0  0.78 0.18 0  0.8100000000000001 0.18 0  0.84 0.18 0  0.87 0.18 0  0.9 0.18 0  0.93 0.18 0  0.96 0.18 0  0.99 0.18 0  1.02 0.18 0  1.05 0.18 0  1.08 0.18 0  1.11 0.18 0  1.14 0.18 0  1.17 0.18 0  1.2 0.18 0  1.23 0.18 0  1.26 0.18 0  1.29 0.18 0  1.32 0.18 0  1.35 0.18 0  1.38 0.18 0  1.41 0.18 0  1.44 0.18 0  1.47 0.18 0  1.5 0.18 0  0 0.2 0  0.03 0.2 0  0.06 0.2 0  0.09 0.2 0  0.12 0.2 0  0.15 0.2 0  0.18 0.2 0  0.21 0.2 0  0.24 0.2 0  0.27 0.2 0  0.3 0.2 0  0.33 0.2 0  0.36 0.2 0  0.39 0.2 0  0.42 0.2 0  0.45 0.2 0  0.48 0.2 0  0.51 0.2 0  0.54 0.2 0  0.57 0.2 0  0.6 0.2 0  0.63 0.2 0  0.66 0.2 0  0.6899999999999999 0.2 0  0.72 0.2 0  0.75 0.2 0  0.78 0.2 0  0.8100000000000001 0.2 0  0.84 0.2 0  0.87 0.2 0  0.9 0.2 0  0.93 0.2 0  0.96 0.2 0  0.99 0.2 0  1.02 0.2 0  1.05 0.2 0  1.08 0.2 0  1.11 0.2 0  1.14 0.2 0  1.17 0.2 0  1.2 0.2 0  1.23 0.2 0  1.26 0.2 0  1.29 0.2 0  1.32 0.2 0  1.35 0.2 0  1.38 0.2 0  1.41 0.2 0  1.44 0.2 0  1.47 0.2 0  1.5 0.2 0  0 0.22 0  0.03 0.22 0  0.06 0.22 0  0.09 0.22 0  0.12 0.22 0  0.15 0.22 0  0.18 0.22 0  0.21 0.22 0  0.24 0.22 0  0.27 0.22 0  0.3 0.22 0  0.33 0.22 0  0.36 0.22 0  0.39 0.22 0  0.42 0.22 0  0.45 0.22 0  0.48 0.22 0  0.51 0.22 0  0.54 0.22 0  0.57 0.22 0  0.6 0.22 0  0.63 0.22 0  0.66 0.22 0  0.6899999999999999 0.22 0  0.72 0.22 0  0.75 0.22 0  0.78 0.22 0  0.8100000000000001 0.22 0  0.84 0.22 0  0.87 0.22 0  0.9 0.22 0  0.93 0.22 0  0.96 0.22 0  0.99 0.22 0  1.02 0.22 0  1.05 0.22 0  1.08 0.22 0  1.11 0.22 0  1.14 0.22 0  1.17 0.22 0  1.2 0.22 0  1.23 0.22 0  1.26 0.22 0  1.29 0.22 0  1.32 0.22 0  1.35 0.22 0  1.38 0.22 0  1.41 0.22 0  1.44 0.22 0  1.47 0.22 0  1.5 0.22 0  0 0.24 0  0.03 0.24 0  0.06 0.24 0  0.09 0.24 0  0.12 0.24 0  0.15 0.24 0  0.18 0.24 0  0.21 0.24 0  0.24 0.24 0  0.27 0.24 0  0.3 0.24 0  0.33 0.24 0  0.36 0.24 0  0.39 0.24 0  0.42 0.24 0  0.45 0.24 0  0.48 0.24 0  0.51 0.24 0  0.54 0.24 0  0.57 0.24 0  0.6 0.24 0  0.63 0.24 0  0.66 0.24 0  0.6899999999999999 0.24 0  0.72 0.24 0  0.75 0.24 0  0.78 0.24 0  0.8100000000000001 0.24 0  0.84 0.24 0  0.87 0.24 0  0.9 0.24 0  0.93 0.24 0  0.96 0.24 0  0.99 0.24 0  1.02 0.24 0  1.05 0.24 0  1.08 0.24 0  1.11 0.24 0  1.14 0.24 0  1.17 0.24 0  1.2 0.24 0  1.23 0.24 0  1.26 0.24 0  1.29 0.24 0  1.32 0.24 0  1.35 0.24 0  1.38 0.24 0  1.41 0.24 0  1.44 0.24 0  1.47 0.24 0  1.5 0.24 0  0 0.26 0  0.03 0.26 0  0.06 0.26 0  0.09 0.26 0  0.12 0.26 0  0.15 0.26 0  0.18 0.26 0  0.21 0.26 0  0.24 0.26 0  0.27 0.26 0  0.3 0.26 0  0.33 0.26 0  0.36 0.26 0  0.39 0.26 0  0.42 0.26 0  0.45 0.26 0  0.48 0.26 0  0.51 0.26 0  0.54 0.26 0  0.57 0.26 0  0.6 0.26 0  0.63 0.26 0  0.66 0.26 0  0.6899999999999999 0.26 0  0.72 0.26 0  0.75 0.26 0  0.78 0.26 0  0.8100000000000001 0.26 0  0.84 0.26 0  0.87 0.26 0  0.9 0.26 0  0.93 0.26 0  0.96 0.26 0  0.99 0.26 0  1.02 0.26 0  1.05 0.26 0  1.08 0.26 0  1.11 0.26 0  1.14 0.26 0  1.17 0.26 0  1.2 0.26 0  1.23 0.26 0  1.26 0.26 0  1.29 0.26 0  1.32 0.26 0  1.35 0.26 0  1.38 0.26 0  1.41 0.26 0  1.44 0.26 0  1.47 0.26 0  1.5 0.26 0  0 0.28 0  0.03 0.28 0  0.06 0.28 0  0.09 0.28 0  0.12 0.28 0  0.15 0.28 0  0.18 0.28 0  0.21 0.28 0  0.24 0.28 0  0.27 0.28 0  0.3 0.28 0  0.33 0.28 0  0.36 0.28 0  0.39 0.28 0  0.42 0.28 0  0.45 0.28 0  0.48 0.28 0  0.51 0.28 0  0.54 0.28 0  0.57 0.28 0  0.6 0.28 0  0.63 0.28 0  0.66 0.28 0  0.6899999999999999 0.28 0  0.72 0.28 0  0.75 0.28 0  0.78 0.28 0  0.8100000000000001 0.28 0  0.84 0.28 0  0.87 0.28 0  0.9 0.28 0  0.93 0.28 0  0.96 0.28 0  0.99 0.28 0  1.02 0.28
[...]
<PointData  Scalars="sensitivity"> 
<DataArray  type="Float64"  Name="sensitivity"  format="ascii">-1.3038839535251980e-06  -1.8489064398570805e-05  -7.7000144653053683e-05  -1.9591020301449344e-04  -3.7559950227598736e-04  -5.9348709284180691e-04  -8.1742520789229961e-04  -1.0200297176849308e-03  -1.1851576787535636e-03  -1.3074266459753593e-03  -1.3884183147888818e-03  -1.4331712248475963e-03  -1.4481822106505425e-03  -1.4403485163775786e-03  -1.4162645584862388e-03  -1.3817580449812779e-03  -1.3416781536743053e-03  -1.2998715616019214e-03  -1.2592533744583347e-03  -1.2219197091542480e-03  -1.1892865113660998e-03  -1.1622459563662025e-03  -1.1413223505594174e-03  -1.1268051772079582e-03  -1.1188447812381648e-03  -1.1175095380899103e-03  -1.1228125836716773e-03  -1.1347164638130975e-03  -1.1531170996468387e-03  -1.1778002150332938e-03  -1.2083605875794245e-03  -1.2440809137264086e-03  -1.2837802749697236e-03  -1.3256526664728037e-03  -1.3671168527889428e-03  -1.4046923578777027e-03  -1.4339226489290041e-03  -1.4493865704620886e-03  -1.4448525284462802e-03  -1.4136035859978341e-03  -1.3488632368015650e-03  -1.2445749439104444e-03  -1.0972327019004948e-03  -9.0901465825685753e-04  -6.9160299694665211e-04  -4.6761950403666279e-04  -2.6762691298132485e-04  -1.2076917861581538e-04  -3.8153160533825035e-05  -5.4727377120222072e-06  -5.2684239260314100e-08  -9.3760368764048632e-06  -7.5516806840090223e-05  -3.0069057129561346e-04  -7.8999540715464413e-04  -1.5628361287750381e-03  -2.5323009710325568e-03  -3.5562839807848361e-03  -4.5036853842133654e-03  -5.2909264914064932e-03  -5.8853710911035096e-03  -6.2893510634907321e-03  -6.5232007378456802e-03  -6.6152744102400303e-03  -6.5967600320622584e-03  -6.4981851438208685e-03  -6.3469690942705038e-03  -6.1661969666531209e-03  -5.9743704428704449e-03  -5.7856633698405756e-03  -5.6103888349064860e-03  -5.4555974233587642e-03  -5.3257797454676131e-03  -5.2235972129352397e-03  -5.1505294206321923e-03  -5.1073543195996563e-03  -5.0944431896644575e-03  -5.1119056932266748e-03  -5.1596307616309806e-03  -5.2372394684544058e-03  -5.3439228325747462e-03  -5.4781148579122751e-03  -5.6369730369225579e-03  -5.8156995790389519e-03  -6.0067990056332302e-03  -6.1993796639714886e-03  -6.3785620594977426e-03  -6.5250692723801858e-03  -6.6151524176535264e-03  -6.6212227980400259e-03  -6.5131941684748694e-03  -6.2602841689771869e-03  -5.8336351458400772e-03  -5.2133838735610267e-03  -4.4009556292143800e-03  -3.4370562023380894e-03  -2.4125568478571046e-03  -1.4583001656381502e-03  -7.1395432245853702e-04  -2.6076412043423499e-04  -6.2261922853013279e-05  -3.6000190633886620e-06  -2.7046095510044845e-05  -1.4686375598144523e-04  -4.3686764034767849e-04  -1.0517379598979648e-03  -1.9935411809977282e-03  -3.1427979785727911e-03  -4.3343270261044300e-03  -5.4209850761139933e-03  -6.3127801105459505e-03  -6.9795251618502757e-03  -7.4278821197150541e-03  -7.6814752912415648e-03  -7.7722479037135306e-03  -7.7360509199663917e-03  -7.6084040271593252e-03  -7.4211892082213585e-03  -7.2011528276978596e-03  -6.9697222997566755e-03  -6.7433320932349340e-03  -6.5339053326879748e-03  -6.3494935129595129e-03  -6.1951018399971480e-03  -6.0735973221056850e-03  -5.9865202402426187e-03  -5.9346666076923399e-03  -5.9184208192970770e-03  -5.9379035966513954e-03  -5.9930140578838597e-03  -6.0833944457344092e-03  -6.2082732916291230e-03  -6.3661012178557142e-03  -6.5539240017887740e-03  -6.7665357058561276e-03  -6.9955707912331827e-03  -7.2286889448883495e-03  -7.4489111042808746e-03  -7.6341452296268221e-03  -7.7570253990233264e-03  -7.7857794035568056e-03  -7.6857595531435877e-03  -7.4224774918401314e-03  -6.9623612441564765e-03  -6.2796696885709146e-03  -5.3682593474921447e-03  -4.2657491618231166e-03  -3.0722310230173050e-03  -1.9278536412569206e-03  -9.9327256863581130e-04  -3.9761605060866027e-04  -1.3058239785335829e-04  -1.6353385323717487e-05  -4.4255780601686570e-05  -2.4899386454167266e-04  -6.5015451790160811e-04  -1.4061030247426714e-03  -2.4504156644330087e-03  -3.6401265609282366e-03  -4.8273148818854554e-03  -5.8739667639353494e-03  -6.7059986234230566e-03  -7.3131754512915561e-03  -7.7103791811473114e-03  -7.9199221150115014e-03  -7.9714235961698063e-03  -7.9003309090216606e-03  -7.7424724748978904e-03  -7.5296301166716036e-03  -7.2881249883922335e-03  -7.0390149532523726e-03  -6.7984945972560202e-03  -6.5782174540232113e-03  -6.3858057720207126e-03  -6.2257055632955246e-03  -6.1002344501578732e-03  -6.0105206872026092e-03  -5.9571245697651685e-03  -5.9403303108248023e-03  -5.9602336369445064e-03  -6.0167621361421836e-03  -6.1096772362411724e-03  -6.2384834562801156e-03  -6.4020941167022474e-03  -6.5981434176704684e-03  -6.8219970676739383e-03  -7.0657262027537535e-03  -7.3172822680569009e-03  -7.5599761125575964e-03  -7.7719976881431650e-03  -7.9260239478303861e-03  -7.9900197052050967e-03  -7.9297154107477123e-03  -7.7150142110766996e-03  -7.3125333754149235e-03  -6.6917568372820441e-03  -5.8373818112629084e-03  -4.7666806958062812e-03  -3.5763701041509571e-03  -2.3870610129825744e-03  -1.3307911757563142e-03  -5.7855304905942296e-04  -2.1186880531388834e-04  -3.4272638627035701e-05  -4.1177685057837527e-05  -3.7450924798580651e-04  -1.0702997710693352e-03  -2.1159908503131115e-03  -3.2644375197407823e-03  -4.4342847027417295e-03  -5.5636075371787641e-03  -6.5030065215537910e-03  -7.2109638375731739e-03  -7.7127965154666937e-03  -8.0276080316798778e-03  -8.1686501515170484e-03  -8.1599413367585919e-03  -8.0367903015611079e-03  -7.8356131753705531e-03  -7.5874304407483641e-03  -7.3172681249774642e-03  -7.0452646387935362e-03  -6.7871064954648170e-03  -6.5539474782488807e-03  -6.3526371090213730e-03  -6.1866344906470914e-03  -6.0573224158448208e-03  -5.9651700682050637e-03  -5.9103989810077376e-03  -5.8931736597889507e-03  -5.9135624160968582e-03  -5.9715116036386353e-03  -6.0669200661193903e-03  -6.1996867458857571e-03  -6.3694579156872476e-03  -6.5748517292987885e-03  -6.8122110092724182e-03  -7.0743253840165506e-03  -7.3496900194758219e-03  -7.6223092145937801e-03  -7.8709910491001275e-03  -8.0689693568398221e-03  -8.1837950726134957e-03  -8.1834612409423003e-03  -8.0414220777255720e-03  -7.7304264475793610e-03  -7.2171670421742884e-03  -6.4958290044940560e-03  -5.5153078384077223e-03  -4.3857379826996428e-03  -3.2383072444823651e-03  -2.0496471823012435e-03  -9.5909285535956024e-04  -2.8021823242683905e-04  -4.0960716137586807e-05  -4.5269820659447729e-05  -7.0840474895642730e-04  -2.6680553496627305e-03  -5.0100929724055708e-03  -5.9988545900171650e-03  -6.4019046754508089e-03  -6.9083759617179679e-03  -7.4375540615086218e-03  -7.8885946211626670e-03  -8.2310885236842844e-03  -8.4392182332461256e-03  -8.4912590640394778e-03  -8.4014502187620878e-03  -8.2081072907136711e-03  -7.9496751775601296e-03  -7.6553924280202525e-03  -7.3478547876319683e-03  -7.0459099574425969e-03  -6.7648089094367149e-03  -6.5152183795197062e-03  -6.3029140814142570e-03  -6.1298531294837781e-03  -5.9960124414073987e-03  -5.9009457669557249e-03  -5.8444883073229589e-03  -5.8267297376369742e-03  -5.8477326371718392e-03  -5.9074181994455193e-03  -6.0057737031430566e-03  -6.1431687958776295e-03  -6.3202870802586426e-03  -6.5372331257413981e-03  -6.7918257193365960e-03  -7.0777696523466466e-03  -7.3842217002734519e-03  -7.6957588682815339e-03  -7.9924475939739253e-03  -8.2500152277476969e-03  -8.4328848246798937e-03  -8.5096881051169599e-03  -8.4466738982124628e-03  -8.3027738487298393e-03  -7.9927530863650054e-03  -7.6494909226105124e-03  -7.2064687846427394e-03  -6.8541012959090972e-03  -6.3409284694826247e-03  -4.3678241860561828e-03  -1.8900679997236980e-03  -3.8649162979614003e-04  -2.7500945240735094e-05  -5.9532196547102182e-04  -3.0409777588803122e-03  -1.0716021166391742e-02  -1.9664179256064541e-02  -2.2398211134706088e-02  -1.8563766483521635e-02  -1.3462510849554138e-02  -1.0057027213816393e-02  -8.9580920910936543e-03  -8.8998812936343930e-03  -8.9549348651121220e-03  -8.8950951506369356e-03  -8.6989328800906474e-03  -8.4149621056762245e-03  -8.0855956594926889e-03  -7.7350428877119093e-03  -7.3815051640348690e-03  -7.0423334712696279e-03  -6.7328458237774320e-03  -6.4634951031488624e-03  -6.2385989627248223e-03  -6.0578308028720503e-03  -5.9190893665199504e-03  -5.8207311961091211e-03  -5.7622584174832235e-03  -5.7438443098997644e-03  -5.7656094197118899e-03  -5.8273454836247750e-03  -5.9289532543182295e-03  -6.0712630164793044e-03  -6.2563655758017681e-03  -6.4865880238827158e-03  -6.7620117401909971e-03  -7.0773617773487677e-03  -7.4221572449395907e-03  -7.7811492025819749e-03  -8.1390213139253091e-03  -8.4727247389750574e-03  -8.7386048434191545e-03  -8.9152914731322856e-03  -8.9689443359024946e-03  -9.1927171134125168e-03  -9.5321226314784933e-03  -1.1072975083419225e-02  -1.3786082625651744e-02  -1.7899205625479229e-02  -2.2251485246499635e-02  -2.0272735238792517e-02  -1.1913728427246086e-02  -2.5277076244239606e-03  -9.3184726676963253e-05  -1.8128610363155359e-03  -1.8766483483029641e-02  -3.1548988798772291e-02  -3.1500096978558691e-02  -3.1481101467653455e-02  -3.1503874769173219e-02  -3.1523439902077614e-02  -2.5026698166888791e-02  -1.4401288632553607e-02  -1.0385958303133930e-02  -9.6637917583637552e-03  -9.3999776205969752e-03  -9.0513730188171073e-03  -8.6521805066498078e-03  -8.2399470846748705e-03  -7.8243373709691085e-03  -7.4162926267239615e-03  -7.0321229579181467e-03  -6.6885313620869578e-03  -6.3965204222021146e-03  -6.1583459004749836e-03  -5.9700931014500724e-03  -5.8265693301541334e-03  -5.7246495996553992e-03  -5.6637657829018660e-03  -5.6445372117108483e-03  -5.6672798329717965e-03  -5.7314519023747377e-03  -5.8364507046925820e-03  -5.9833811546049507e-03  -6.1761941081590627e-03  -6.4205291965476205e-03  -6.7200963277428702e-03  -7.0707103091858575e-03  -7.4611133937451659e-03  -7.8770085542557572e-03  -8.3079793893241858e-03  -8.7277820081948475e-03  -9.1280037265996667e-03  -9.4707134710216075e-03  -9.8223730810426419e-03  -1.1645272475921099e-02  -1.5100731095473238e-02  -2.3166450194425897e-02  -3.1527217402768197e-02  -3.1527918221733064e-02  -3.1469574818379718e-02  -3.1487785798084769e-02  -3.1517129119705042e-02  -1.9165173177673672e-02  -1.7577032467569424e-03  -9.4197581355886777e-03  -3.1524931693327811e-02  -3.1521269473623506e-02  -3.1517348004508297e-02  -3.1512197209063897e-02  -3.1524440966619757e-02  -3.1544303167893258e-02  -3.1526203094642248e-02  -3.1529810311032448e-02  -1.9220505861403371e-02  -1.2027243146981765e-02  -1.0168292494433052e-02  -9.4688893262946314e-03  -8.9115409536443570e-03  -8.4094870674851982e-03  -7.9216754673462775e-03  -7.4504015198998269e-03  -7.0122423311811512e-03  -6.6280249488784738e-03  -6.3110750981027232e-03  -6.0604047660045074e-03  -5.8661997946294949e-03  -5.7186129518361998e-03  -5.6128330564059114e-03  -5.5489080273798006e-03  -5.5286051938429363e-03  -5.5526962258122172e-03  -5.6199597029864389e-03  -5.7284191190969096e-03  -5.8789294025663385e-03  -6.0777653285338943e-03  -6.3355613910558300e-03  -6.6623736858803717e-03  -7.0558708473556020e-03  -7.4988337100070149e-03  -7.9816989323184435e-03  -8.4862316684773259e-03  -9.0424161475909821e-03  -9.7020741168624847e-03  -1.0574355586844084e-02  -1.2888634258460964e-02  -1.9225301478701329e-02  -3.1852763363741446e-02  -3.1527337455308363e-02  -3.1505309669179686e-02  -3.1525958613563630e-02  -3.1513292468987389e-02  -3.1507226265498754e-02  -3.1513949776971757e-02  -3.1527429421911654e-02  -7.1403869357966714e-03  -1.5756451870360875e-02  -3.1527724473093474e-02  -3.1524121816425797e-02  -3.1519450415056681e-02  -3.1518179735403370e-02  -3.1519795984097577e-02  -3.1524822400869797e-02  -3.1534510037340799e-02  -3.1502130567397070e-02  -3.1367747899801270e-02  -2.4612530314415147e-02  -1.3797576700366070e-02  -1.0203029046987520e-02  -9.2200337276429952e-03  -8.5999869987629478e-03  -8.0279691350033065e-03  -7.4833932405726717e-03  -6.9794299874133200e-03  -6.5459701052997896e-03  -6.2028463169717264e-03  -5.9429152443361112e-03  -5.7462617218016661e-03  -5.5959943730893849e-03  -5.4856891519231002e-03  -5.4175289464643726e-03  -5.3956711693786581e-03  -5.4217948078290933e-03  -5.4934901893207476e-03  -5.6057161710267849e-03  -5.7578310104810662e-03  -5.9588719752535317e-03  -6.2273301158123958e-03  -6.5837121656923247e-03  -7.0320314480667983e-03  -7.5316728443922745e-03  -8.1040444763985052e-03  -8.6936231594878805e-03  -9.5418000770603108e-03  -1.1209336568991389e-02  -1.4458397161782526e-02  -2.2990097349400596e-02  -3.1588352687496407e-02  -3.1531470926775780e-02  -3.1539237433303099e-02  -3.1510828796658522e-02  -3.1518264253489407e-02  -3.1519648874288049e-02  -3.1518953564981772e-02  -3.1524672988561417e-02  -3.1528663717812204e-02  -1.5763245679733352e-02  -1.8325326558287579e-02  -3.1536760439964943e-02  -3.1519194785863160e-02  -3.1522118855483547e-02  -3.1521593173151112e-02  -3.1521320163701655e-02  -3.1520390600195514e-02  -3.1519955831729819e-02  -3.1521099581155107e-02  -3.1518203555902381e-02  -3.1524326655366891e-02  -3.0497864440776463e-02  -1.5590561346460124e-02  -1.0285347269334923e-02  -8.9272028688041887e-03  -8.1629813717369604e-03  -7.5236040634566346e-03  -6.9325974728326953e-03  -6.4352682368788577e-03  -6.0668433888376025e-03  -5.8047840982327634e-03  -5.6119744427173797e-03  -5.4609589772380398e-03  -5.3443309194556241e-03  -5.2696280136253840e-03  -5.2454306021218217e-03  -5.2747508028349096e-03  -5.3536074353433081e-03  -5.4709122930653251e-03  -5.6214498510196416e-03  -5.8183339358143576e-03  -6.0913356015439169e-03  -6.4762542520513423e-03  -7.0103248015850415e-03  -7.5827596567843037e-03  -8.3067761812159815e-03  -9.1685617057095155e-03  -1.1668353724206257e-02  -1.6383373720772667e-02  -2.7482885517142303e-02  -3.1349395752313013e-02  -3.1529972398574746e-02  -3.1521581995722456e-02  -3.1519935491791842e-02  -3.1520836806576351e-02  -3.1521311843164569e-02  -3.1520736485463073e-02  -3.1519984578901643e-02  -3.1523538208370470e-02  -3.1813019157729827e-02  -1.6626263902115277e-02  -2.8533075346741817e-02  -4.6138286213482829e-02  -3.5624485416509206e-02  -3.1522633968069182e-02  -3.1520239586812444e-02  -3.1522240227313598e-02  -3.1522346884972234e-02  -3.1520245805566310e-02  -3.1516014572027885e-02  -3.1518755847205079e-02  -3.1550874549465653e-02  -3.1532969995268487e-02  -3.1508430498335120e-02  -1.9083603644971664e-02  -1.1366480124100475e-02  -8.7095469187902091e-03  -7.6986938663312285e-03  -6.9153814357299000e-03  -6.3083185629456929e-03  -5.9127339604728556e-03  -5.6562576475398148e-03  -5.4750471396393446e-03  -5.3242167979363660e-03  -5.1961724930396991e-03  -5.1105599600814854e-03  -5.0828077347119770e-03  -5.1168098420891397e-03  -5.2092095013041130e-03  -5.3373472760954504e-03  -5.4838700956792059e-03  -5.6728897884742524e-03  -5.9452988229310739e-03  -6.3668866624167252e-03  -7.0782698719691253e-03  -7.8643262218026592e-03  -9.4282920061723990e-03  -1.2407547406051255e-02  -1.8931346187964795e-02  -3.1573107407223792e-02  -3.1599125483464836e-02  -3.1514662093164822e-02  -3.1503429973828913e-02  -3.1523743397344518e-02  -3.1523639615253819e-02  -3.1523198484626765e-02  -3.1520929282236029e-02  -3.1519101848903781e-02  -3.1522055456350916e-02  -3.7739223463728322e-02  -4.7931014578481299e-02  -2.5075395211028167e-02  -3.5080422738256289e-02  -6.0547123365326909e-02  -4.6020145779474428e-02  -3.5289034429977426e-02  -3.1521028550020279e-02  -3.1520495122148280e-02  -3.1521565627142457e-02  -3.1522077526164607e-02  -3.1520506475574722e-02  -3.1517103782398991e-02  -3.1519748700638534e-02  -3.1533053395418426e-02  -3.1488962545687137e-02  -3.1467349477115596e-02  -2.6601389723867865e-02  -1.5732825171172880e-02  -1.0371959936817958e-02  -7.8717260269667352e-03  -6.6736990972699464e-03  -6.0628643494419132e-03  -5.7147942276725124e-03  -5.4958222178063867e-03  -5.3150227551824946e-03  -5.1528302830889132e-03  -5.0456735555465884e-03  -5.0126781995883862e-03  -5.0555406613353579e-03  -5.1802395142738732e-03  -5.3496028876506225e-03  -5.5324833819820982e-03  -5.7944063785436576e-03  -6.2062251191266375e-03  -6.9547620213064676e-03  -8.7048476069327470e-03  -1.1296472718205814e-02  -1.5571862166248887e-02  -2.5139896243035413e-02  -3.1316969376211208e-02  -3.1424655394482914e-02  -3.1519901442896549e-02  -3.1522571654794170e-02  -3.1519858213338837e-02  -3.1522810720237951e-02  -3.1523861162901283e-02  -3.1522167959921556e-02  -3.1520333878067547e-02  -3.1522841381754388e-02  -3.6357122947156220e-02  -4.6458477961120230e-02  -6.0499595781317680e-02  -3.3666373997605394e-02  -3.4014052400491553e-02  -6.2913859533441502e-02  -5.0483852083938116e-02  -3.9847047067959607e-02  -3.2802163887118402e-02  -3.1519589788925884e-02  -3.1519790822871839e-02  -3.1520836963579893e-02  -3.1522175545658990e-02  -3.1522231944071992e-02  -3.1518940693637948e-02  -3.1514950563707081e-02  -3.1517328008636915e-02  -3.1508972591274984e-02  -3.1493122744494208e-02  -3.1641133939647452e-02  -2.8246307482806127e-02  -1.9372556264515631e-02  -1.4276259396817918e-02  -1.1651457156978105e-02  -1.0083380403129576e-02  -9.1168659734278124e-03  -8.4358109826883597e-03  -7.9624886600092436e-03  -7.7273651190733908e-03  -7.6739656180408568e-03  -7.7820486248115061e-03  -8.1065599183335110e-03  -8.5871095401985915e-03  -9.1860785862692626e-03  -1.0168924778183545e-02  -1.1686409234357473e-02  -1.4208095199310818e-02  -1.8955782119377994e-02  -2.7367754677600272e-02  -3.1562651435248383e-02  -3.1602173679131353e-02  -3.1545070250365126e-02  -3.1485914500324924e-02  -3.1506562514921212e-02  -3.1519650097218702e-02  -3.1522060127254087e-02  -3.1522201753184445e-02  -3.1522658364056877e-02  -3.1520597573164381e-02  -3.1521626991030192e-02  -3.3329745074751185e-02  -3.9793673944661344e-02  -4.9833509528281195e-02  -6.2143503052262648e-02  -3.5179888933615358e-02  -2.5773052714882391e-02  -5.2482870654507546e-02  -4.5938764333279820e-02  -3.9539924248591110e-02  -3.4225196669648246e-02  -3.1520023189608726e-02  -3.1518920227038311e-02  -3.1518901327940441e-02  -3.1520560417855531e-02  -3.1522775584979720e-02  -3.1523342724376270e-02  -3.1519178183860463e-02  -3.1511881736800605e-02  -3.1512774730932981e-02  -3.1523799294668961e-02  -3.1531560217067447e-02  -3.1515213274526603e-02  -3.1590649557241876e-02  -3.1468223703956105e-02  -3.1426689664977782e-02  -3.1422315639326195e-02  -3.1357801465650120e-02  -3.0988319801630398e-02  -2.9810622041098848e-02  -2.8996045330993311e-02  -2.8735966932219217e-02  -2.8948391262435376e-02  -2.9707969220351915e-02  -3.0904672414904355e-02  -3.1384752567894102e-02  -3.1325338428236836e-02  -3.1500897656539746e-02  -3.1354680869268410e-02  -3.1610219990217923e-02  -3.1497190741621585e-02  -3.1519517106963768e-02  -3.1539114282796703e-02  -3.1524820676613420e-02  -3.1519247841094590e-02  -3.1518361642040353e-02  -3.1521641180076138e-02  -3.1521528496337228e-02  -3.1520523128522701e-02  -3.1521138026988450e-02  -3.1518333801626518e-02  -3.1522790074038770e-02  -3.4121538910039703e-02  -3.8784635947444954e-02  -4.4794838848638850e-02  -5.1203697313793206e-02  -2.9053056018208824e-02  -1.6698771628949633e-02  -3.6184660099627182e-02  -3.5935770268762310e-02  -3.4728857870339712e-02  -3.2987593285640063e-02  -3.1525558918701943e-02  -3.1516668478914864e-02  -3.1518339086506364e-02  -3.1518540304345324e-02  -3.1520601407837613e-02  -3.1522888433857678e-02  -3.1523617443083359e-02  -3.1520757501007017e-02  -3.1515114232659250e-02  -3.1512531661222178e-02  -3.1512833544783972e-02  -3.1512486665365783e-02  -3.1539492485473976e-02  -3.1554204492270442e-02  -3.1533325623590527e-02  -3.1542114056431939e-02  -3.1543623839674267e-02  -3.1546123241061617e-02  -3.1544937077059416e-02  -3.1533870141488334e-02  -3.1525006021101247e-02  -3.1525339035710788e-02  -3.1534003223307842e-02  -3.1548181468945703e-02  -3.1559766770877289e-02  -3.1543022724633780e-02  -