<?xml version="1.0"?>
<VTKFile type="UnstructuredGrid"  version="0.1"  >
<UnstructuredGrid>
<Piece  NumberOfPoints="2601" NumberOfCells="5000">
<Points>
<DataArray  type="Float64"  NumberOfComponents="3"  format="ascii">0 0 0  0.03 0 0  0.06 0 0  0.09 0 0  0.12 0 0  0.15 0 0  0.18 0 0  0.21 0 0  0.24 0 0  0.27 0 0  0.3 0 0  0.33 0 0  0.36 0 0  0.39 0 0  0.42 0 0  0.45 0 0  0.48 0 0  0.51 0 0  0.54 0 0  0.57 0 0  0.6 0 0  0.63 0 0  0.66 0 0  0.6899999999999999 0 0  0.72 0 0  0.75 0 0  0.78 0 0  0.8100000000000001 0 0  0.84 0 0  0.87 0 0  0.9 0 0  0.93 0 0  0.96 0 0  0.99 0 0  1.02 0 0  1.05 0 0  1.08 0 0  1.11 0 0  1.14 0 0  1.17 0 0  1.2 0 0  1.23 0 0  1.26 0 0  1.29 0 0  1.32 0 0  1.35 0 0  1.38 0 0  1.41 0 0  1.44 0 0  1.47 0 0  1.5 0 0  0 0.02 0  0.03 0.02 0  0.06 0.02 0  0.09 0.02 0  0.12 0.02 0  0.15 0.02 0  0.18 0.02 0  0.21 0.02 0  0.24 0.02 0  0.27 0.02 0  0.3 0.02 0  0.33 0.02 0  0.36 0.02 0  0.39 0.02 0  0.42 0.02 0  0.45 0.02 0  0.48 0.02 0  0.51 0.02 0  0.54 0.02 0  0.57 0.02 0  0.6 0.02 0  0.63 0.02 0  0.66 0.02 0  0.6899999999999999 0.02 0  0.72 0.02 0  0.75 0.02 0  0.78 0.02 0  0.8100000000000001 0.02 0  0.84 0.02 0  0.87 0.02 0  0.9 0.02 0  0.93 0.02 0  0.96 0.02 0  0.99 0.02 0  1.02 0.02 0  1.05 0.02 0  1.08 0.02 0  1.11 0.02 0  1.14 0.02 0  1.17 0.02 0  1.2 0.02 0  1.23 0.02 0  1.26 0.02 0  1.29 0.02 0  1.32 0.02 0  1.35 0.02 0  1.38 0.02 0  1.41 0.02 0  1.44 0.02 0  1.47 0.02 0  1.5 0.02 0  0 0.04 0  0.03 0.04 0  0.06 0.04 0  0.09 0.04 0  0.12 0.04 0  0.15 0.04 0  0.18 0.04 0  0.21 0.04 0  0.24 0.04 0  0.27 0.04 0  0.3 0.04 0  0.33 0.04 0  0.36 0.04 0  0.39 0.04 0  0.42 0.04 0  0.45 0.04 0  0.48 0.04 0  0.51 0.04 0  0.54 0.04 0  0.57 0.04 0  0.6 0.04 0  0.63 0.04 0  0.66 0.04 0  0.6899999999999999 0.04 0  0.72 0.04 0  0.75 0.04 0  0.78 0.04 0  0.8100000000000001 0.04 0  0.84 0.04 0  0.87 0.04 0  0.9 0.04 0  0.93 0.04 0  0.96 0.04 0  0.99 0.04 0  1.02 0.04 0  1.05 0.04 0  1.08 0.04 0  1.11 0.04 0  1.14 0.04 0  1.17 0.04 0  1.2 0.04 0  1.23 0.04 0  1.26 0.04 0  1.29 0.04 0  1.32 0.04 0  1.35 0.04 0  1.38 0.04 0  1.41 0.04 0  1.44 0.04 0  1.47 0.04 0  1.5 0.04 0  0 0.06 0  0.03 0.06 0  0.06 0.06 0  0.09 0.06 0  0.12 0.06 0  0.15 0.06 0  0.18 0.06 0  0.21 0.06 0  0.24 0.06 0  0.27 0.06 0  0.3 0.06 0  0.33 0.06 0  0.36 0.06 0  0.39 0.06 0  0.42 0.06 0  0.45 0.06 0  0.48 0.06 0  0.51 0.06 0  0.54 0.06 0  0.57 0.06 0  0.6 0.06 0  0.63 0.06 0  0.66 0.06 0  0.6899999999999999 0.06 0  0.72 0.06 0  0.75 0.06 0  0.78 0.06 0  0.8100000000000001 0.06 0  0.84 0.06 0  0.87 0.06 0  0.9 0.06 0  0.93 0.06 0  0.96 0.06 0  0.99 0.06 0  1.02 0.06 0  1.05 0.06 0  1.08 0.06 0  1.11 0.06 0  1.14 0.06 0  1.17 0.06 0  1.2 0.06 0  1.23 0.06 0  1.26 0.06 0  1.29 0.06 0  1.32 0.06 0  1.35 0.06 0  1.38 0.06 0  1.41 0.06 0  1.44 0.06 0  1.47 0.06 0  1.5 0.06 0  0 0.08 0  0.03 0.08 0  0.06 0.08 0  0.09 0.08 0  0.12 0.08 0  0.15 0.08 0  0.18 0.08 0  0.21 0.08 0  0.24 0.08 0  0.27 0.08 0  0.3 0.08 0  0.33 0.08 0  0.36 0.08 0  0.39 0.08 0  0.42 0.08 0  0.45 0.08 0  0.48 0.08 0  0.51 0.08 0  0.54 0.08 0  0.57 0.08 0  0.6 0.08 0  0.63 0.08 0  0.66 0.08 0  0.6899999999999999 0.08 0  0.72 0.08 0  0.75 0.08 0  0.78 0.08 0  0.8100000000000001 0.08 0  0.84 0.08 0  0.87 0.08 0  0.9 0.08 0  0.93 0.08 0  0.96 0.08 0  0.99 0.08 0  1.02 0.08 0  1.05 0.08 0  1.08 0.08 0  1.11 0.08 0  1.14 0.08 0  1.17 0.08 0  1.2 0.08 0  1.23 0.08 0  1.26 0.08 0  1.29 0.08 0  1.32 0.08 0  1.35 0.08 0  1.38 0.08 0  1.41 0.08 0  1.44 0.08 0  1.47 0.08 0  1.5 0.08 0  0 0.1 0  0.03 0.1 0  0.06 0.1 0  0.09 0.1 0  0.12 0.1 0  0.15 0.1 0  0.18 0.1 0  0.21 0.1 0  0.24 0.1 0  0.27 0.1 0  0.3 0.1 0  0.33 0.1 0  0.36 0.1 0  0.39 0.1 0  0.42 0.1 0  0.45 0.1 0  0.48 0.1 0  0.51 0.1 0  0.54 0.1 0  0.57 0.1 0  0.6 0.1 0  0.63 0.1 0  0.66 0.1 0  0.6899999999999999 0.1 0  0.72 0.1 0  0.75 0.1 0  0.78 0.1 0  0.8100000000000001 0.1 0  0.84 0.1 0  0.87 0.1 0  0.9 0.1 0  0.93 0.1 0  0.96 0.1 0  0.99 0.1 0  1.02 0.1 0  1.05 0.1 0  1.08 0.1 0  1.11 0.1 0  1.14 0.1 0  1.17 0.1 0  1.2 0.1 0  1.23 0.1 0  1.26 0.1 0  1.29 0.1 0  1.32 0.1 0  1.35 0.1 0  1.38 0.1 0  1.41 0.1 0  1.44 0.1 0  1.47 0.1 0  1.5 0.1 0  0 0.12 0  0.03 0.12 0  0.06 0.12 0  0.09 0.12 0  0.12 0.12 0  0.15 0.12 0  0.18 0.12 0  0.21 0.12 0  0.24 0.12 0  0.27 0.12 0  0.3 0.12 0  0.33 0.12 0  0.36 0.12 0  0.39 0.12 0  0.42 0.12 0  0.45 0.12 0  0.48 0.12 0  0.51 0.12 0  0.54 0.12 0  0.57 0.12 0  0.6 0.12 0  0.63 0.12 0  0.66 0.12 0  0.6899999999999999 0.12 0  0.72 0.12 0  0.75 0.12 0  0.78 0.12 0  0.8100000000000001 0.12 0  0.84 0.12 0  0.87 0.12 0  0.9 0.12 0  0.93 0.12 0  0.96 0.12 0  0.99 0.12 0  1.02 0.12 0  1.05 0.12 0  1.08 0.12 0  1.11 0.12 0  1.14 0.12 0  1.17 0.12 0  1.2 0.12 0  1.23 0.12 0  1.26 0.12 0  1.29 0.12 0  1.32 0.12 0  1.35 0.12 0  1.38 0.12 0  1.41 0.12 0  1.44 0.12 0  1.47 0.12 0  1.5 0.12 0  0 0.14 0  0.03 0.14 0  0.06 0.14 0  0.09 0.14 0  0.12 0.14 0  0.15 0.14 0  0.18 0.14 0  0.21 0.14 0  0.24 0.14 0  0.27 0.14 0  0.3 0.14 0  0.33 0.14 0  0.36 0.14 0  0.39 0.14 0  0.42 0.14 0  0.45 0.14 0  0.48 0.14 0  0.51 0.14 0  0.54 0.14 0  0.57 0.14 0  0.6 0.14 0  0.63 0.14 0  0.66 0.14 0  0.6899999999999999 0.14 0  0.72 0.14 0  0.75 0.14 0  0.78 0.14 0  0.8100000000000001 0.14 0  0.84 0.14 0  0.87 0.14 0  0.9 0.14 0  0.93 0.14 0  0.96 0.14 0  0.99 0.14 0  1.02 0.14 0  1.05 0.14 0  1.08 0.14 0  1.11 0.14 0  1.14 0.14 0  1.17 0.14 0  1.2 0.14 0  1.23 0.14 0  1.26 0.14 0  1.29 0.14 0  1.32 0.14 0  1.35 0.14 0  1.38 0.14 0  1.41 0.14 0  1.44 0.14 0  1.47 0.14 0  1.5 0.14 0  0 0.16 0  0.03 0.16 0  0.06 0.16 0  0.09 0.16 0  0.12 0.16 0  0.15 0.16 0  0.18 0.16 0  0.21 0.16 0  0.24 0.16 0  0.27 0.16 0  0.3 0.16 0  0.33 0.16 0  0.36 0.16 0  0.39 0.16 0  0.42 0.16 0  0.45 0.16 0  0.48 0.16 0  0.51 0.16 0  0.54 0.16 0  0.57 0.16 0  0.6 0.16 0  0.63 0.16 0  0.66 0.16 0  0.6899999999999999 0.16 0  0.72 0.16 0  0.75 0.16 0  0.78 0.16 0  0.8100000000000001 0.16 0  0.84 0.16 0  0.87 0.16 0  0.9 0.16 0  0.93 0.16 0  0.96 0.16 0  0.99 0.16 0  1.02 0.16 0  1.05 0.16 0  1.08 0.16 0  1.11 0.16 0  1.14 0.16 0  1.17 0.16 0  1.2 0.16 0  1.23 0.16 0  1.26 0.16 0  1.29 0.16 0  1.32 0.16 0  1.35 0.16 0  1.38 0.16 0  1.41 0.16 0  1.44 0.16 0  1.47 0.16 0  1.5 0.16 0  0 0.18 0  0.03 0.18 0  0.06 0.18 0  0.09 0.18 0  0.12 0.18 0  0.15 0.18 0  0.18 0.18 0  0.21 0.18 0  0.24 0.18 0  0.27 0.18 0  0.3 0.18 0  0.33 0.18 0  0.36 0.18 0  0.39 0.18 0  0.42 0.18 0  0.45 0.18 0  0.48 0.18 0  0.51 0.18 0  0.54 0.18 0  0.57 0.18 0  0.6 0.18 0  0.63 0.18 0  0.66 0.18 0  0.6899999999999999 0.18 0  0.72 0.18 0  0.75 0.18 0  0.78 0.18 0  0.8100000000000001 0.18 0  0.84 0.18 0  0.87 0.18 0  0.9 0.18 0  0.93 0.18 0  0.96 0.18 0  0.99 0.18 0  1.02 0.18 0  1.05 0.18 0  1.08 0.18 0  1.11 0.18 0  1.14 0.18 0  1.17 0.18 0  1.2 0.18 0  1.23 0.18 0  1.26 0.18 0  1.29 0.18 0  1.32 0.18 0  1.35 0.18 0  1.38 0.18 0  1.41 0.18 0  1.44 0.18 0  1.47 0.18 0  1.5 0.18 0  0 0.2 0  0.03 0.2 0  0.06 0.2 0  0.09 0.2 0  0.12 0.2 0  0.15 0.2 0  0.18 0.2 0  0.21 0.2 0  0.24 0.2 0  0.27 0.2 0  0.3 0.2 0  0.33 0.2 0  0.36 0.2 0  0.39 0.2 0  0.42 0.2 0  0.45 0.2 0  0.48 0.2 0  0.51 0.2 0  0.54 0.2 0  0.57 0.2 0  0.6 0.2 0  0.63 0.2 0  0.66 0.2 0  0.6899999999999999 0.2 0  0.72 0.2 0  0.75 0.2 0  0.78 0.2 0  0.8100000000000001 0.2 0  0.84 0.2 0  0.87 0.2 0  0.9 0.2 0  0.93 0.2 0  0.96 0.2 0  0.99 0.2 0  1.02 0.2 0  1.05 0.2 0  1.08 0.2 0  1.11 0.2 0  1.14 0.2 0  1.17 0.2 0  1.2 0.2 0  1.23 0.2 0  1.26 0.2 0  1.29 0.2 0  1.32 0.2 0  1.35 0.2 0  1.38 0.2 0  1.41 0.2 0  1.44 0.2 0  1.47 0.2 0  1.5 0.2 0  0 0.22 0  0.03 0.22 0  0.06 0.22 0  0.09 0.22 0  0.12 0.22 0  0.15 0.22 0  0.18 0.22 0  0.21 0.22 0  0.24 0.22 0  0.27 0.22 0  0.3 0.22 0  0.33 0.22 0  0.36 0.22 0  0.39 0.22 0  0.42 0.22 0  0.45 0.22 0  0.48 0.22 0  0.51 0.22 0  0.54 0.22 0  0.57 0.22 0  0.6 0.22 0  0.63 0.22 0  0.66 0.22 0  0.6899999999999999 0.22 0  0.72 0.22 0  0.75 0.22 0  0.78 0.22 0  0.8100000000000001 0.22 0  0.84 0.22 0  0.87 0.22 0  0.9 0.22 0  0.93 0.22 0  0.96 0.22 0  0.99 0.22 0  1.02 0.22 0  1.05 0.22 0  1.08 0.22 0  1.11 0.22 0  1.14 0.22 0  1.17 0.22 0  1.2 0.22 0  1.23 0.22 0  1.26 0.22 0  1.29 0.22 0  1.32 0.22 0  1.35 0.22 0  1.38 0.22 0  1.41 0.22 0  1.44 0.22 0  1.47 0.22 0  1.5 0.22 0  0 0.24 0  0.03 0.24 0  0.06 0.24 0  0.09 0.24 0  0.12 0.24 0  0.15 0.24 0  0.18 0.24 0  0.21 0.24 0  0.24 0.24 0  0.27 0.24 0  0.3 0.24 0  0.33 0.24 0  0.36 0.24 0  0.39 0.24 0  0.42 0.24 0  0.45 0.24 0  0.48 0.24 0  0.51 0.24 0  0.54 0.24 0  0.57 0.24 0  0.6 0.24 0  0.63 0.24 0  0.66 0.24 0  0.6899999999999999 0.24 0  0.72 0.24 0  0.75 0.24 0  0.78 0.24 0  0.8100000000000001 0.24 0  0.84 0.24 0  0.87 0.24 0  0.9 0.24 0  0.93 0.24 0  0.96 0.24 0  0.99 0.24 0  1.02 0.24 0  1.05 0.24 0  1.08 0.24 0  1.11 0.24 0  1.14 0.24 0  1.17 0.24 0  1.2 0.24 0  1.23 0.24 0  1.26 0.24 0  1.29 0.24 0  1.32 0.24 0  1.35 0.24 0  1.38 0.24 0  1.41 0.24 0  1.44 0.24 0  1.47 0.24 0  1.5 0.24 0  0 0.26 0  0.03 0.26 0  0.06 0.26 0  0.09 0.26 0  0.12 0.26 0  0.15 0.26 0  0.18 0.26 0  0.21 0.26 0  0.24 0.26 0  0.27 0.26 0  0.3 0.26 0  0.33 0.26 0  0.36 0.26 0  0.39 0.26 0  0.42 0.26 0  0.45 0.26 0  0.48 0.26 0  0.51 0.26 0  0.54 0.26 0  0.57 0.26 0  0.6 0.26 0  0.63 0.26 0  0.66 0.26 0  0.6899999999999999 0.26 0  0.72 0.26 0  0.75 0.26 0  0.78 0.26 0  0.8100000000000001 0.26 0  0.84 0.26 0  0.87 0.26 0  0.9 0.26 0  0.93 0.26 0  0.96 0.26 0  0.99 0.26 0  1.02 0.26 0  1.05 0.26 0  1.08 0.26 0  1.11 0.26 0  1.14 0.26 0  1.17 0.26 0  1.2 0.26 0  1.23 0.26 0  1.26 0.26 0  1.29 0.26 0  1.32 0.26 0  1.35 0.26 0  1.38 0.26 0  1.41 0.26 0  1.44 0.26 0  1.47 0.26 0  1.5 0.26 0  0 0.28 0  0.03 0.28 0  0.06 0.28 0  0.09 0.28 0  0.12 0.28 0  0.15 0.28 0  0.18 0.28 0  0.21 0.28 0  0.24 0.28 0  0.27 0.28 0  0.3 0.28 0  0.33 0.28 0  0.36 0.28 0  0.39 0.28 0  0.42 0.28 0  0.45 0.28 0  0.48 0.28 0  0.51 0.28 0  0.54 0.28 0  0.57 0.28 0  0.6 0.28 0  0.63 0.28 0  0.66 0.28 0  0.6899999999999999 0.28 0  0.72 0.28 0  0.75 0.28 0  0.78 0.28 0  0.8100000000000001 0.28 0  0.84 0.28 0  0.87 0.28 0  0.9 0.28 0  0.93 0.28 0  0.96 0.28 0  0.99 0.28 0  1.02 0.28
[...]
<PointData  Scalars="sensitivity"> 
<DataArray  type="Float64"  Name="sensitivity"  format="ascii">-1.3043629426538463e-06  -1.8496140557802401e-05  -7.7028898531562057e-05  -1.9597011575084834e-04  -3.7567335195349720e-04  -5.9354284750416512e-04  -8.1745523382195586e-04  -1.0200613548168071e-03  -1.1852214422978875e-03  -1.3075234293129744e-03  -1.3885208414985560e-03  -1.4332497075096244e-03  -1.4482229044345792e-03  -1.4403536648977431e-03  -1.4162439561096649e-03  -1.3817226851747966e-03  -1.3416377004798071e-03  -1.2998334507209267e-03  -1.2592222995653987e-03  -1.2218976060690556e-03  -1.1892732619887614e-03  -1.1622405400002870e-03  -1.1413239072930585e-03  -1.1268136227416418e-03  -1.1188609281848078e-03  -1.1175348681585094e-03  -1.1228487978229892e-03  -1.1347648681620734e-03  -1.1531779505789784e-03  -1.1778723646839733e-03  -1.2084418603404441e-03  -1.2441693610765103e-03  -1.2838758196343735e-03  -1.3257580409032951e-03  -1.3672365276657179e-03  -1.4048287498487021e-03  -1.4340695135284921e-03  -1.4495201697064968e-03  -1.4449234623295987e-03  -1.4135414910661902e-03  -1.3486159795144999e-03  -1.2441720685518660e-03  -1.0967883288865198e-03  -9.0865758182096239e-04  -6.9140945745244738e-04  -4.6757942341797622e-04  -2.6766398324713900e-04  -1.2080989328671173e-04  -3.8171487730186863e-05  -5.4757808538689568e-06  -5.2715299546692182e-08  -9.3794169966085667e-06  -7.5545871606790034e-05  -3.0080751408088208e-04  -7.9025526168814708e-04  -1.5631765607803927e-03  -2.5325678761002690e-03  -3.5564157167426642e-03  -4.5037977260355020e-03  -5.2911826311036764e-03  -5.8858047968539740e-03  -6.2898431519616532e-03  -6.5235989328776061e-03  -6.6154983826716210e-03  -6.5968116034785772e-03  -6.4981076214989516e-03  -6.3468138640119954e-03  -6.1660102605429817e-03  -5.9741890467125769e-03  -5.7855117862228196e-03  -5.6102783108839469e-03  -5.4555285438702356e-03  -5.3257477261164747e-03  -5.2235972775466809e-03  -5.1505601873973158e-03  -5.1074187478213047e-03  -5.0945477578006881e-03  -5.1120585083360469e-03  -5.1598388285778408e-03  -5.2375054538360720e-03  -5.3442427084035632e-03  -5.4784786659886195e-03  -5.6373700770340537e-03  -5.8161264927171826e-03  -6.0072659422085346e-03  -6.1999082565254082e-03  -6.3791709028671647e-03  -6.5257460163114815e-03  -6.6158163383729929e-03  -6.6216765210520868e-03  -6.5131152520955179e-03  -6.2593536794058446e-03  -5.8318741546821247e-03  -5.2112732883502280e-03  -4.3991219520867078e-03  -3.4359377004136451e-03  -2.4122135684732406e-03  -1.4584249470459827e-03  -7.1416637114988287e-04  -2.6088323519857649e-04  -6.2296612351867985e-05  -3.6021522038834159e-06  -2.7054774429246620e-05  -1.4692156323378692e-04  -4.3705637826225584e-04  -1.0521215165691237e-03  -1.9939835996262731e-03  -3.1430537261409853e-03  -4.3343525510568144e-03  -5.4210140113707577e-03  -6.3130805298313693e-03  -6.9801209302806826e-03  -7.4285525950179756e-03  -7.6819866410703843e-03  -7.7725089337645822e-03  -7.7360899125926115e-03  -7.6082886772551742e-03  -7.4209846130443855e-03  -7.2009145289878666e-03  -6.9694953443786671e-03  -6.7431466068599297e-03  -6.5337737483958467e-03  -6.3494138441447454e-03  -6.1950654223517070e-03  -6.0735964900368623e-03  -5.9865527025071835e-03  -5.9347362275836910e-03  -5.9185362638075256e-03  -5.9380760163201853e-03  -5.9932537104432949e-03  -6.0837060188500729e-03  -6.2086516619114327e-03  -6.3665314829758572e-03  -6.5543885590654723e-03  -6.7670267273705984e-03  -6.9961011787271132e-03  -7.2292927683685008e-03  -7.4496262275391481e-03  -7.6349807332524444e-03  -7.7579209582302822e-03  -7.7865213263235032e-03  -7.6859236241081253e-03  -7.4214809215395368e-03  -6.9600894629165480e-03  -6.2768286213784070e-03  -5.3657279234752761e-03  -4.2641350653393664e-03  -3.0717050818538771e-03  -1.9280324785299488e-03  -9.9359680696493760e-04  -3.9781206266249899e-04  -1.3066078300128314e-04  -1.6363585752180008e-05  -4.4266477638192994e-05  -2.4909847735720103e-04  -6.5049648039966533e-04  -1.4067184257199655e-03  -2.4509670465290056e-03  -3.6402018199088483e-03  -4.8270024051421459e-03  -5.8737572901947843e-03  -6.7063353756074652e-03  -7.3140143275732903e-03  -7.7112756342250545e-03  -7.9205186381004749e-03  -7.9716621532456722e-03  -7.9003120383718661e-03  -7.7422993951323446e-03  -7.5293737894163481e-03  -7.2878423661601440e-03  -7.0387558352075332e-03  -6.7982925753013760e-03  -6.5780829634627634e-03  -6.3857303904264395e-03  -6.2256737138620122e-03  -6.1002342279789928e-03  -6.0105488636902843e-03  -5.9571862699754861e-03  -5.9404366164165206e-03  -5.9603991359150647e-03  -6.0170014575502782e-03  -6.1099985817607292e-03  -6.2388809259997860e-03  -6.4025456200903965e-03  -6.5986200276402012e-03  -6.8224821037610522e-03  -7.0662342985945295e-03  -7.3178653509398950e-03  -7.5607026821951657e-03  -7.7729199814747215e-03  -7.9271400429215631e-03  -7.9911818825262118e-03  -7.9304450121214613e-03  -7.7142423570376387e-03  -7.3096770060905912e-03  -6.6880341745750530e-03  -5.8340288064779354e-03  -4.7643731270626492e-03  -3.5755645271789739e-03  -2.3873607924219400e-03  -1.3313274560943413e-03  -5.7887897868044702e-04  -2.1200997678990071e-04  -3.4296268172082974e-05  -4.1173293103070799e-05  -3.7469818694664889e-04  -1.0710664011217294e-03  -2.1172117961064437e-03  -3.2652069473065137e-03  -4.4338081434755284e-03  -5.5625439803823487e-03  -6.5023242808990847e-03  -7.2114210812810617e-03  -7.7141631876993574e-03  -8.0289159894404421e-03  -8.1693403725545261e-03  -8.1600971901320957e-03  -8.0366653767727537e-03  -7.8353540251684568e-03  -7.5870997148027594e-03  -7.3169199821525865e-03  -7.0449584949086779e-03  -6.7868833001803091e-03  -6.5538139988780197e-03  -6.3525731156454518e-03  -6.1866124345641964e-03  -6.0573238595166400e-03  -5.9651910913271055e-03  -5.9104471272796721e-03  -5.8932634693559666e-03  -5.9137133125256799e-03  -5.9717454565349085e-03  -6.0672522193084824e-03  -6.2001115274863145e-03  -6.3699415256030668e-03  -6.5753449523673841e-03  -6.8126795489879804e-03  -7.0747836213087261e-03  -7.3502166770944817e-03  -7.6230212804999703e-03  -7.8719990261023800e-03  -8.0703494090631454e-03  -8.1856452759349416e-03  -8.1852390615505827e-03  -8.0414395249553666e-03  -7.7263275299337894e-03  -7.2119055491609340e-03  -6.4912853416656023e-03  -5.5116234530486231e-03  -4.3842946852715317e-03  -3.2389811498762340e-03  -2.0507720840539797e-03  -9.5971826322985255e-04  -2.8042387838215425e-04  -4.0993585306764528e-05  -4.5288626900196079e-05  -7.0907557081664979e-04  -2.6703983413850075e-03  -5.0125144276574555e-03  -5.9995618148481833e-03  -6.3996726634268130e-03  -6.9059249411030253e-03  -7.4359599514688488e-03  -7.8893903481764057e-03  -8.2336307527255057e-03  -8.4412411391702954e-03  -8.4919655767782664e-03  -8.4013872548289164e-03  -8.2078129818501655e-03  -7.9493077563793802e-03  -7.6549642738158105e-03  -7.3474122241823986e-03  -7.0455353802135433e-03  -6.7645591956056383e-03  -6.5150936696706562e-03  -6.3028731105716817e-03  -6.1298485441688899e-03  -5.9960167449163082e-03  -5.9009559255573281e-03  -5.8445164618777532e-03  -5.8267947532753611e-03  -5.8478595494612538e-03  -5.9076400042352541e-03  -6.0061198915532261e-03  -6.1436373525199598e-03  -6.3208262454090792e-03  -6.5377588466799513e-03  -6.7922708863772758e-03  -7.0781422836415260e-03  -7.3846373229427007e-03  -7.6964167913195370e-03  -7.9935086307975287e-03  -8.2516339629493153e-03  -8.4356849016281737e-03  -8.5131146337161772e-03  -8.4496627081663209e-03  -8.2958265689525683e-03  -7.9846182185885732e-03  -7.6442585501956279e-03  -7.2011388709487126e-03  -6.8516378332457153e-03  -6.3428665490826942e-03  -4.3707740588802028e-03  -1.8915117502955536e-03  -3.8677147362506744e-04  -2.7525481693316963e-05  -5.9558976498250843e-04  -3.0366649759831763e-03  -1.0715495622905774e-02  -1.9677439425393742e-02  -2.2405482101592940e-02  -1.8556601061157342e-02  -1.3456015411443444e-02  -1.0053855141114149e-02  -8.9598633294818812e-03  -8.9051724600518224e-03  -8.9580694106106782e-03  -8.8954465779260417e-03  -8.6983773881321100e-03  -8.4144411680688227e-03  -8.0851250987236094e-03  -7.7344962012373822e-03  -7.3809255959058065e-03  -7.0418593590593475e-03  -6.7325659320404043e-03  -6.4633959376729517e-03  -6.2386014473525039e-03  -6.0578552918488715e-03  -5.9190971485566617e-03  -5.8207247448845397e-03  -5.7622586598861181e-03  -5.7438744316358663e-03  -5.7656986009542435e-03  -5.8275422431450273e-03  -5.9293149143242732e-03  -6.0718001019020784e-03  -6.2569997293888671e-03  -6.4871761533327335e-03  -6.7624288443347488e-03  -7.0775937278595392e-03  -7.4223696303777655e-03  -7.7816957043422086e-03  -8.1400725270044140e-03  -8.4744254037127636e-03  -8.7422169207393360e-03  -8.9216517781627279e-03  -8.9797922929567738e-03  -9.1817810748931056e-03  -9.5223176495866733e-03  -1.1071413604697298e-02  -1.3780191588961137e-02  -1.7908323438978406e-02  -2.2268440876527140e-02  -2.0276450040778233e-02  -1.1913284486517791e-02  -2.5283371537095497e-03  -9.3207824898881587e-05  -1.8126349321429302e-03  -1.8756767514462706e-02  -3.1506909235587161e-02  -3.1521063708224988e-02  -3.1523092166263200e-02  -3.1511627556979234e-02  -3.1499102409330522e-02  -2.5009088734264471e-02  -1.4398145633032955e-02  -1.0396948061180720e-02  -9.6677004369920879e-03  -9.3987902506875391e-03  -9.0498913490610813e-03  -8.6514655597397429e-03  -8.2394469338492454e-03  -7.8236482350268789e-03  -7.4155024111906536e-03  -7.0315000468725679e-03  -6.6882219423278627e-03  -6.3964799650725176e-03  -6.1584266960975449e-03  -5.9701630623214923e-03  -5.8265783354322235e-03  -5.7246168612320849e-03  -5.6637290702786338e-03  -5.6445215451323234e-03  -5.6673119570850522e-03  -5.7315976910265638e-03  -5.8368229467632817e-03  -5.9840239391858452e-03  -6.1769893230988054e-03  -6.4212331567649952e-03  -6.7204880968155332e-03  -7.0707183666617688e-03  -7.4609691167466571e-03  -7.8773369856978050e-03  -8.3090499726796857e-03  -8.7291953860981642e-03  -9.1311093151569805e-03  -9.4822718058689710e-03  -9.8484965701830622e-03  -1.1616685737290865e-02  -1.5075608598312622e-02  -2.3201799347522860e-02  -3.1473825528574320e-02  -3.1505441026787373e-02  -3.1525928145962417e-02  -3.1522056950302350e-02  -3.1509651303989479e-02  -1.9159620574534540e-02  -1.7580038191790423e-03  -9.4174914369955353e-03  -3.1518092520925405e-02  -3.1520334568792094e-02  -3.1520866466034685e-02  -3.1521323499591858e-02  -3.1517828727992366e-02  -3.1514117619436149e-02  -3.1511148821323297e-02  -3.1503218311802549e-02  -1.9235308652973251e-02  -1.2023695936122479e-02  -1.0162741101675629e-02  -9.4661371639971608e-03  -8.9109501036452165e-03  -8.4091622323304582e-03  -7.9207914034337620e-03  -7.4492585198952114e-03  -7.0113900634798379e-03  -6.6276976535687955e-03  -6.3111560648313652e-03  -6.0606221804181673e-03  -5.8663363069370988e-03  -5.7186125789904811e-03  -5.6127569509144626e-03  -5.5488253733881237e-03  -5.5285357308849084e-03  -5.5526476793779245e-03  -5.6200030269899504e-03  -5.7287797950923642e-03  -5.8797347831219772e-03  -6.0788308206112468e-03  -6.3364754481299588e-03  -6.6627603268157249e-03  -7.0555395920805100e-03  -7.4980624900258998e-03  -7.9815319428618789e-03  -8.4879830569426253e-03  -9.0428355622169630e-03  -9.7014899304444704e-03  -1.0591947727163976e-02  -1.2914758589000028e-02  -1.9223280683214578e-02  -3.1479033786315010e-02  -3.1487636634263412e-02  -3.1510513549197240e-02  -3.1516276373365883e-02  -3.1520958784641243e-02  -3.1523016338971963e-02  -3.1520972257401775e-02  -3.1517398518745736e-02  -7.1381683947294760e-03  -1.5760635829080417e-02  -3.1520564114399581e-02  -3.1519493651027457e-02  -3.1520316575905823e-02  -3.1520570168834409e-02  -3.1520201929534100e-02  -3.1519665871633136e-02  -3.1515980016161182e-02  -3.1520045745918726e-02  -3.1529711093536576e-02  -2.4614561535161186e-02  -1.3783543077960425e-02  -1.0199894530761382e-02  -9.2205188560898696e-03  -8.6002802204184995e-03  -8.0267209504956884e-03  -7.4816148359596697e-03  -6.9782201505107647e-03  -6.5456634307961819e-03  -6.2031639391133021e-03  -5.9433659026533366e-03  -5.7464878357152650e-03  -5.5959537414971517e-03  -5.4855386974040970e-03  -5.4173942572699986e-03  -5.3955543700380370e-03  -5.4216417468100249e-03  -5.4933332711636484e-03  -5.6059923264898627e-03  -5.7588985757930583e-03  -5.9603842309212621e-03  -6.2286258132794488e-03  -6.5841187067096430e-03  -7.0312556184577938e-03  -7.5297820823806818e-03  -8.1026086819559542e-03  -8.6979386149957823e-03  -9.5416839679832357e-03  -1.1201885478430153e-02  -1.4492507601404839e-02  -2.3023505488582677e-02  -3.1562150660540397e-02  -3.1537753901702638e-02  -3.1518314332692782e-02  -3.1517153183833364e-02  -3.1519241945408893e-02  -3.1520063275176764e-02  -3.1519976493311820e-02  -3.1519046133903578e-02  -3.1518398183844450e-02  -1.5758706418529972e-02  -1.8326371006687308e-02  -3.1540389306820231e-02  -3.1521758587344378e-02  -3.1521469155531424e-02  -3.1520714808840278e-02  -3.1520181250479035e-02  -3.1520323347563897e-02  -3.1520379792851584e-02  -3.1519180091991818e-02  -3.1518844155962698e-02  -3.1514400853643952e-02  -3.0467689950188868e-02  -1.5587975190810692e-02  -1.0290234411640214e-02  -8.9289698947986832e-03  -8.1608735601279708e-03  -7.5206711324786657e-03  -6.9308449824509967e-03  -6.4350841440165120e-03  -6.0675990395847937e-03  -5.8056280589835040e-03  -5.6123065839607036e-03  -5.4608011741020630e-03  -5.3440500313923786e-03  -5.2694464391881499e-03  -5.2453076393292582e-03  -5.2744725407655223e-03  -5.3531175891679281e-03  -5.4708373743012993e-03  -5.6230388045286715e-03  -5.8205056205308768e-03  -6.0933477721660332e-03  -6.4766231985436641e-03  -7.0092950906759394e-03  -7.5788442740768684e-03  -8.3021133648421321e-03  -9.1789449981167764e-03  -1.1664543607395283e-02  -1.6353445696959731e-02  -2.7501655099295256e-02  -3.1501308909266147e-02  -3.1519829642482788e-02  -3.1528793815681889e-02  -3.1521697631517305e-02  -3.1519357142159983e-02  -3.1520247924880451e-02  -3.1521212237702552e-02  -3.1521303751007042e-02  -3.1522143738298779e-02  -3.1811737951980897e-02  -1.6625110334680646e-02  -2.8533040464846556e-02  -4.6138504276326479e-02  -3.5624948514134593e-02  -3.1523081672098621e-02  -3.1521544859110510e-02  -3.1521101994224435e-02  -3.1520355865741083e-02  -3.1520306124057575e-02  -3.1520763740057134e-02  -3.1520450327344206e-02  -3.1514957357067899e-02  -3.1511211453246410e-02  -3.1473517858581393e-02  -1.9093145046755456e-02  -1.1373297443822841e-02  -8.7066108017239702e-03  -7.6941380163336546e-03  -6.9128583234611650e-03  -6.3084663475258462e-03  -5.9142267955526280e-03  -5.6577619420097973e-03  -5.4754700715839242e-03  -5.3237674231655903e-03  -5.1956707907307633e-03  -5.1103687166807639e-03  -5.0827794524769855e-03  -5.1164504916493079e-03  -5.2083087835052130e-03  -5.3359086123900756e-03  -5.4868894099313892e-03  -5.6755775690717084e-03  -5.9489204727541092e-03  -6.3667334444939636e-03  -7.0778280722402160e-03  -7.8582770035796039e-03  -9.4184027247859303e-03  -1.2428420934720154e-02  -1.8973333277721698e-02  -3.1420845425308028e-02  -3.1490169760051812e-02  -3.1512704207356537e-02  -3.1520763401923654e-02  -3.1521504405209302e-02  -3.1521165295543691e-02  -3.1520910708230897e-02  -3.1521405996767282e-02  -3.1521507521700499e-02  -3.1523388413046166e-02  -3.7739163955449719e-02  -4.7930778022092342e-02  -2.5075466175659613e-02  -3.5080402771812007e-02  -6.0546879582010257e-02  -4.6019521462857753e-02  -3.5288382070493375e-02  -3.1522679203165940e-02  -3.1522098084728757e-02  -3.1521331502769305e-02  -3.1520605871745919e-02  -3.1520151177199911e-02  -3.1520518540606196e-02  -3.1520643228099242e-02  -3.1516289257225910e-02  -3.1518333338024375e-02  -3.1494916586451364e-02  -2.6604148922187869e-02  -1.5730552275536901e-02  -1.0374044414545688e-02  -7.8684726177912882e-03  -6.6743141321459797e-03  -6.0650539117062877e-03  -5.7170377820578364e-03  -5.4961759201024455e-03  -5.3139894792519756e-03  -5.1520643161479798e-03  -5.0456387653414307e-03  -5.0130084769548977e-03  -5.0554312142205024e-03  -5.1789714366811384e-03  -5.3446735061923722e-03  -5.5379866267238013e-03  -5.7955493869273154e-03  -6.2116339996653568e-03  -6.9518170975197960e-03  -8.7095666914487769e-03  -1.1287706013135881e-02  -1.5546136750409768e-02  -2.5142614921771920e-02  -3.1458683642606532e-02  -3.1549691649106808e-02  -3.1522666384670973e-02  -3.1517678000692127e-02  -3.1520072638991287e-02  -3.1521340259516036e-02  -3.1521571269691205e-02  -3.1521653687019362e-02  -3.1521512447793353e-02  -3.1523340775870164e-02  -3.6357153206549246e-02  -4.6458311472201357e-02  -6.0499427102788647e-02  -3.3666353402269131e-02  -3.4014057570699897e-02  -6.2913798622143233e-02  -5.0483480002172280e-02  -3.9846158348401141e-02  -3.2802222134132607e-02  -3.1522784266421446e-02  -3.1522127658934751e-02  -3.1521615572678088e-02  -3.1520646256337728e-02  -3.1519748243391689e-02  -3.1520059521221819e-02  -3.1520806697710270e-02  -3.1518436443783431e-02  -3.1516018451779364e-02  -3.1515343631607740e-02  -3.1532894839029268e-02  -2.8234843259209195e-02  -1.9379831464328486e-02  -1.4291935885484245e-02  -1.1657815240154024e-02  -1.0090005132384576e-02  -9.1179293726078806e-03  -8.4360099171524889e-03  -7.9645007393489547e-03  -7.7303054344869193e-03  -7.6774969176017617e-03  -7.7856092889570117e-03  -8.1077750865083589e-03  -8.5743591448302018e-03  -9.2075393532113029e-03  -1.0169261121622680e-02  -1.1698185848889452e-02  -1.4203540269898300e-02  -1.8948973776516855e-02  -2.7391653034722765e-02  -3.1428579656711496e-02  -3.1493328625753006e-02  -3.1508320771028005e-02  -3.1522970147726176e-02  -3.1524970936721394e-02  -3.1519946377197301e-02  -3.1520742354920701e-02  -3.1521651637957920e-02  -3.1522149284952165e-02  -3.1522542800089530e-02  -3.1522668301069083e-02  -3.3328973764028637e-02  -3.9793015468149021e-02  -4.9833200595341125e-02  -6.2143421533411514e-02  -3.5179879278310164e-02  -2.5773094283645236e-02  -5.2483086634339753e-02  -4.5938854903077198e-02  -3.9539474068182125e-02  -3.4225382407255436e-02  -3.1525262006601350e-02  -3.1523071198492771e-02  -3.1522108963091384e-02  -3.1521706631154715e-02  -3.1520522013367504e-02  -3.1519418081054712e-02  -3.1519639955775072e-02  -3.1520853209550545e-02  -3.1520353171033029e-02  -3.1517259142283378e-02  -3.1522191799987713e-02  -3.1516901316291840e-02  -3.1482696144440707e-02  -3.1549950916698766e-02  -3.1462838162848825e-02  -3.1476970332786326e-02  -3.1385040043121287e-02  -3.0985939391142036e-02  -2.9818614380672188e-02  -2.9008869043770598e-02  -2.8749619143131219e-02  -2.8960794467347062e-02  -2.9714941562566446e-02  -3.0878379419434422e-02  -3.1384271386559234e-02  -3.1538185545636900e-02  -3.1482411801529706e-02  -3.1519716501357563e-02  -3.1508910687046976e-02  -3.1541938818308579e-02  -3.1523796075621939e-02  -3.1512277048549663e-02  -3.1519180694870204e-02  -3.1519536714189160e-02  -3.1520408463912734e-02  -3.1520645626741804e-02  -3.1521609090937514e-02  -3.1522137732320071e-02  -3.1522583054304928e-02  -3.1523252636400004e-02  -3.1526691480592367e-02  -3.4121069351337720e-02  -3.8784073379067044e-02  -4.4794826710914497e-02  -5.1203796266148974e-02  -2.9053067928881699e-02  -1.6698178710425487e-02  -3.6184283126086431e-02  -3.5935866481537203e-02  -3.4728722506410944e-02  -3.2988022491670876e-02  -3.1530673623011603e-02  -3.1523455609047138e-02  -3.1522522971589764e-02  -3.1522219689679852e-02  -3.1521676874071654e-02  -3.1520473535872277e-02  -3.1519307146742878e-02  -3.1519204743500319e-02  -3.1520438769143642e-02  -3.1521735552145776e-02  -3.1522392010041332e-02  -3.1520257255641448e-02  -3.1512394351821363e-02  -3.1518238985890019e-02  -3.1520959604150661e-02  -3.1513659823702390e-02  -3.1517826491357773e-02  -3.1515267623196605e-02  -3.1519098566609824e-02  -3.1517754570130320e-02  -3.1518466046814346e-02  -3.1518230038669236e-02  -3.1516781058463110e-02  -3.1514706720977170e-02  -3.1510398080015746e-02  -3.1518685803082112e-02  -