<?xml version="1.0"?>
<VTKFile type="UnstructuredGrid"  version="0.1"  >
<UnstructuredGrid>
<Piece  NumberOfPoints="2601" NumberOfCells="5000">
<Points>
<DataArray  type="Float64"  NumberOfComponents="3"  format="ascii">0 0 0  0.03 0 0  0.06 0 0  0.09 0 0  0.12 0 0  0.15 0 0  0.18 0 0  0.21 0 0  0.24 0 0  0.27 0 0  0.3 0 0  0.33 0 0  0.36 0 0  0.39 0 0  0.42 0 0  0.45 0 0  0.48 0 0  0.51 0 0  0.54 0 0  0.57 0 0  0.6 0 0  0.63 0 0  0.66 0 0  0.6899999999999999 0 0  0.72 0 0  0.75 0 0  0.78 0 0  0.8100000000000001 0 0  0.84 0 0  0.87 0 0  0.9 0 0  0.93 0 0  0.96 0 0  0.99 0 0  1.02 0 0  1.05 0 0  1.08 0 0  1.11 0 0  1.14 0 0  1.17 0 0  1.2 0 0  1.23 0 0  1.26 0 0  1.29 0 0  1.32 0 0  1.35 0 0  1.38 0 0  1.41 0 0  1.44 0 0  1.47 0 0  1.5 0 0  0 0.02 0  0.03 0.02 0  0.06 0.02 0  0.09 0.02 0  0.12 0.02 0  0.15 0.02 0  0.18 0.02 0  0.21 0.02 0  0.24 0.02 0  0.27 0.02 0  0.3 0.02 0  0.33 0.02 0  0.36 0.02 0  0.39 0.02 0  0.42 0.02 0  0.45 0.02 0  0.48 0.02 0  0.51 0.02 0  0.54 0.02 0  0.57 0.02 0  0.6 0.02 0  0.63 0.02 0  0.66 0.02 0  0.6899999999999999 0.02 0  0.72 0.02 0  0.75 0.02 0  0.78 0.02 0  0.8100000000000001 0.02 0  0.84 0.02 0  0.87 0.02 0  0.9 0.02 0  0.93 0.02 0  0.96 0.02 0  0.99 0.02 0  1.02 0.02 0  1.05 0.02 0  1.08 0.02 0  1.11 0.02 0  1.14 0.02 0  1.17 0.02 0  1.2 0.02 0  1.23 0.02 0  1.26 0.02 0  1.29 0.02 0  1.32 0.02 0  1.35 0.02 0  1.38 0.02 0  1.41 0.02 0  1.44 0.02 0  1.47 0.02 0  1.5 0.02 0  0 0.04 0  0.03 0.04 0  0.06 0.04 0  0.09 0.04 0  0.12 0.04 0  0.15 0.04 0  0.18 0.04 0  0.21 0.04 0  0.24 0.04 0  0.27 0.04 0  0.3 0.04 0  0.33 0.04 0  0.36 0.04 0  0.39 0.04 0  0.42 0.04 0  0.45 0.04 0  0.48 0.04 0  0.51 0.04 0  0.54 0.04 0  0.57 0.04 0  0.6 0.04 0  0.63 0.04 0  0.66 0.04 0  0.6899999999999999 0.04 0  0.72 0.04 0  0.75 0.04 0  0.78 0.04 0  0.8100000000000001 0.04 0  0.84 0.04 0  0.87 0.04 0  0.9 0.04 0  0.93 0.04 0  0.96 0.04 0  0.99 0.04 0  1.02 0.04 0  1.05 0.04 0  1.08 0.04 0  1.11 0.04 0  1.14 0.04 0  1.17 0.04 0  1.2 0.04 0  1.23 0.04 0  1.26 0.04 0  1.29 0.04 0  1.32 0.04 0  1.35 0.04 0  1.38 0.04 0  1.41 0.04 0  1.44 0.04 0  1.47 0.04 0  1.5 0.04 0  0 0.06 0  0.03 0.06 0  0.06 0.06 0  0.09 0.06 0  0.12 0.06 0  0.15 0.06 0  0.18 0.06 0  0.21 0.06 0  0.24 0.06 0  0.27 0.06 0  0.3 0.06 0  0.33 0.06 0  0.36 0.06 0  0.39 0.06 0  0.42 0.06 0  0.45 0.06 0  0.48 0.06 0  0.51 0.06 0  0.54 0.06 0  0.57 0.06 0  0.6 0.06 0  0.63 0.06 0  0.66 0.06 0  0.6899999999999999 0.06 0  0.72 0.06 0  0.75 0.06 0  0.78 0.06 0  0.8100000000000001 0.06 0  0.84 0.06 0  0.87 0.06 0  0.9 0.06 0  0.93 0.06 0  0.96 0.06 0  0.99 0.06 0  1.02 0.06 0  1.05 0.06 0  1.08 0.06 0  1.11 0.06 0  1.14 0.06 0  1.17 0.06 0  1.2 0.06 0  1.23 0.06 0  1.26 0.06 0  1.29 0.06 0  1.32 0.06 0  1.35 0.06 0  1.38 0.06 0  1.41 0.06 0  1.44 0.06 0  1.47 0.06 0  1.5 0.06 0  0 0.08 0  0.03 0.08 0  0.06 0.08 0  0.09 0.08 0  0.12 0.08 0  0.15 0.08 0  0.18 0.08 0  0.21 0.08 0  0.24 0.08 0  0.27 0.08 0  0.3 0.08 0  0.33 0.08 0  0.36 0.08 0  0.39 0.08 0  0.42 0.08 0  0.45 0.08 0  0.48 0.08 0  0.51 0.08 0  0.54 0.08 0  0.57 0.08 0  0.6 0.08 0  0.63 0.08 0  0.66 0.08 0  0.6899999999999999 0.08 0  0.72 0.08 0  0.75 0.08 0  0.78 0.08 0  0.8100000000000001 0.08 0  0.84 0.08 0  0.87 0.08 0  0.9 0.08 0  0.93 0.08 0  0.96 0.08 0  0.99 0.08 0  1.02 0.08 0  1.05 0.08 0  1.08 0.08 0  1.11 0.08 0  1.14 0.08 0  1.17 0.08 0  1.2 0.08 0  1.23 0.08 0  1.26 0.08 0  1.29 0.08 0  1.32 0.08 0  1.35 0.08 0  1.38 0.08 0  1.41 0.08 0  1.44 0.08 0  1.47 0.08 0  1.5 0.08 0  0 0.1 0  0.03 0.1 0  0.06 0.1 0  0.09 0.1 0  0.12 0.1 0  0.15 0.1 0  0.18 0.1 0  0.21 0.1 0  0.24 0.1 0  0.27 0.1 0  0.3 0.1 0  0.33 0.1 0  0.36 0.1 0  0.39 0.1 0  0.42 0.1 0  0.45 0.1 0  0.48 0.1 0  0.51 0.1 0  0.54 0.1 0  0.57 0.1 0  0.6 0.1 0  0.63 0.1 0  0.66 0.1 0  0.6899999999999999 0.1 0  0.72 0.1 0  0.75 0.1 0  0.78 0.1 0  0.8100000000000001 0.1 0  0.84 0.1 0  0.87 0.1 0  0.9 0.1 0  0.93 0.1 0  0.96 0.1 0  0.99 0.1 0  1.02 0.1 0  1.05 0.1 0  1.08 0.1 0  1.11 0.1 0  1.14 0.1 0  1.17 0.1 0  1.2 0.1 0  1.23 0.1 0  1.26 0.1 0  1.29 0.1 0  1.32 0.1 0  1.35 0.1 0  1.38 0.1 0  1.41 0.1 0  1.44 0.1 0  1.47 0.1 0  1.5 0.1 0  0 0.12 0  0.03 0.12 0  0.06 0.12 0  0.09 0.12 0  0.12 0.12 0  0.15 0.12 0  0.18 0.12 0  0.21 0.12 0  0.24 0.12 0  0.27 0.12 0  0.3 0.12 0  0.33 0.12 0  0.36 0.12 0  0.39 0.12 0  0.42 0.12 0  0.45 0.12 0  0.48 0.12 0  0.51 0.12 0  0.54 0.12 0  0.57 0.12 0  0.6 0.12 0  0.63 0.12 0  0.66 0.12 0  0.6899999999999999 0.12 0  0.72 0.12 0  0.75 0.12 0  0.78 0.12 0  0.8100000000000001 0.12 0  0.84 0.12 0  0.87 0.12 0  0.9 0.12 0  0.93 0.12 0  0.96 0.12 0  0.99 0.12 0  1.02 0.12 0  1.05 0.12 0  1.08 0.12 0  1.11 0.12 0  1.14 0.12 0  1.17 0.12 0  1.2 0.12 0  1.23 0.12 0  1.26 0.12 0  1.29 0.12 0  1.32 0.12 0  1.35 0.12 0  1.38 0.12 0  1.41 0.12 0  1.44 0.12 0  1.47 0.12 0  1.5 0.12 0  0 0.14 0  0.03 0.14 0  0.06 0.14 0  0.09 0.14 0  0.12 0.14 0  0.15 0.14 0  0.18 0.14 0  0.21 0.14 0  0.24 0.14 0  0.27 0.14 0  0.3 0.14 0  0.33 0.14 0  0.36 0.14 0  0.39 0.14 0  0.42 0.14 0  0.45 0.14 0  0.48 0.14 0  0.51 0.14 0  0.54 0.14 0  0.57 0.14 0  0.6 0.14 0  0.63 0.14 0  0.66 0.14 0  0.6899999999999999 0.14 0  0.72 0.14 0  0.75 0.14 0  0.78 0.14 0  0.8100000000000001 0.14 0  0.84 0.14 0  0.87 0.14 0  0.9 0.14 0  0.93 0.14 0  0.96 0.14 0  0.99 0.14 0  1.02 0.14 0  1.05 0.14 0  1.08 0.14 0  1.11 0.14 0  1.14 0.14 0  1.17 0.14 0  1.2 0.14 0  1.23 0.14 0  1.26 0.14 0  1.29 0.14 0  1.32 0.14 0  1.35 0.14 0  1.38 0.14 0  1.41 0.14 0  1.44 0.14 0  1.47 0.14 0  1.5 0.14 0  0 0.16 0  0.03 0.16 0  0.06 0.16 0  0.09 0.16 0  0.12 0.16 0  0.15 0.16 0  0.18 0.16 0  0.21 0.16 0  0.24 0.16 0  0.27 0.16 0  0.3 0.16 0  0.33 0.16 0  0.36 0.16 0  0.39 0.16 0  0.42 0.16 0  0.45 0.16 0  0.48 0.16 0  0.51 0.16 0  0.54 0.16 0  0.57 0.16 0  0.6 0.16 0  0.63 0.16 0  0.66 0.16 0  0.6899999999999999 0.16 0  0.72 0.16 0  0.75 0.16 0  0.78 0.16 0  0.8100000000000001 0.16 0  0.84 0.16 0  0.87 0.16 0  0.9 0.16 0  0.93 0.16 0  0.96 0.16 0  0.99 0.16 0  1.02 0.16 0  1.05 0.16 0  1.08 0.16 0  1.11 0.16 0  1.14 0.16 0  1.17 0.16 0  1.2 0.16 0  1.23 0.16 0  1.26 0.16 0  1.29 0.16 0  1.32 0.16 0  1.35 0.16 0  1.38 0.16 0  1.41 0.16 0  1.44 0.16 0  1.47 0.16 0  1.5 0.16 0  0 0.18 0  0.03 0.18 0  0.06 0.18 0  0.09 0.18 0  0.12 0.18 0  0.15 0.18 0  0.18 0.18 0  0.21 0.18 0  0.24 0.18 0  0.27 0.18 0  0.3 0.18 0  0.33 0.18 0  0.36 0.18 0  0.39 0.18 0  0.42 0.18 0  0.45 0.18 0  0.48 0.18 0  0.51 0.18 0  0.54 0.18 0  0.57 0.18 0  0.6 0.18 0  0.63 0.18 0  0.66 0.18 0  0.6899999999999999 0.18 0  0.72 0.18 0  0.75 0.18 0  0.78 0.18 0  0.8100000000000001 0.18 0  0.84 0.18 0  0.87 0.18 0  0.9 0.18 0  0.93 0.18 0  0.96 0.18 0  0.99 0.18 0  1.02 0.18 0  1.05 0.18 0  1.08 0.18 0  1.11 0.18 0  1.14 0.18 0  1.17 0.18 0  1.2 0.18 0  1.23 0.18 0  1.26 0.18 0  1.29 0.18 0  1.32 0.18 0  1.35 0.18 0  1.38 0.18 0  1.41 0.18 0  1.44 0.18 0  1.47 0.18 0  1.5 0.18 0  0 0.2 0  0.03 0.2 0  0.06 0.2 0  0.09 0.2 0  0.12 0.2 0  0.15 0.2 0  0.18 0.2 0  0.21 0.2 0  0.24 0.2 0  0.27 0.2 0  0.3 0.2 0  0.33 0.2 0  0.36 0.2 0  0.39 0.2 0  0.42 0.2 0  0.45 0.2 0  0.48 0.2 0  0.51 0.2 0  0.54 0.2 0  0.57 0.2 0  0.6 0.2 0  0.63 0.2 0  0.66 0.2 0  0.6899999999999999 0.2 0  0.72 0.2 0  0.75 0.2 0  0.78 0.2 0  0.8100000000000001 0.2 0  0.84 0.2 0  0.87 0.2 0  0.9 0.2 0  0.93 0.2 0  0.96 0.2 0  0.99 0.2 0  1.02 0.2 0  1.05 0.2 0  1.08 0.2 0  1.11 0.2 0  1.14 0.2 0  1.17 0.2 0  1.2 0.2 0  1.23 0.2 0  1.26 0.2 0  1.29 0.2 0  1.32 0.2 0  1.35 0.2 0  1.38 0.2 0  1.41 0.2 0  1.44 0.2 0  1.47 0.2 0  1.5 0.2 0  0 0.22 0  0.03 0.22 0  0.06 0.22 0  0.09 0.22 0  0.12 0.22 0  0.15 0.22 0  0.18 0.22 0  0.21 0.22 0  0.24 0.22 0  0.27 0.22 0  0.3 0.22 0  0.33 0.22 0  0.36 0.22 0  0.39 0.22 0  0.42 0.22 0  0.45 0.22 0  0.48 0.22 0  0.51 0.22 0  0.54 0.22 0  0.57 0.22 0  0.6 0.22 0  0.63 0.22 0  0.66 0.22 0  0.6899999999999999 0.22 0  0.72 0.22 0  0.75 0.22 0  0.78 0.22 0  0.8100000000000001 0.22 0  0.84 0.22 0  0.87 0.22 0  0.9 0.22 0  0.93 0.22 0  0.96 0.22 0  0.99 0.22 0  1.02 0.22 0  1.05 0.22 0  1.08 0.22 0  1.11 0.22 0  1.14 0.22 0  1.17 0.22 0  1.2 0.22 0  1.23 0.22 0  1.26 0.22 0  1.29 0.22 0  1.32 0.22 0  1.35 0.22 0  1.38 0.22 0  1.41 0.22 0  1.44 0.22 0  1.47 0.22 0  1.5 0.22 0  0 0.24 0  0.03 0.24 0  0.06 0.24 0  0.09 0.24 0  0.12 0.24 0  0.15 0.24 0  0.18 0.24 0  0.21 0.24 0  0.24 0.24 0  0.27 0.24 0  0.3 0.24 0  0.33 0.24 0  0.36 0.24 0  0.39 0.24 0  0.42 0.24 0  0.45 0.24 0  0.48 0.24 0  0.51 0.24 0  0.54 0.24 0  0.57 0.24 0  0.6 0.24 0  0.63 0.24 0  0.66 0.24 0  0.6899999999999999 0.24 0  0.72 0.24 0  0.75 0.24 0  0.78 0.24 0  0.8100000000000001 0.24 0  0.84 0.24 0  0.87 0.24 0  0.9 0.24 0  0.93 0.24 0  0.96 0.24 0  0.99 0.24 0  1.02 0.24 0  1.05 0.24 0  1.08 0.24 0  1.11 0.24 0  1.14 0.24 0  1.17 0.24 0  1.2 0.24 0  1.23 0.24 0  1.26 0.24 0  1.29 0.24 0  1.32 0.24 0  1.35 0.24 0  1.38 0.24 0  1.41 0.24 0  1.44 0.24 0  1.47 0.24 0  1.5 0.24 0  0 0.26 0  0.03 0.26 0  0.06 0.26 0  0.09 0.26 0  0.12 0.26 0  0.15 0.26 0  0.18 0.26 0  0.21 0.26 0  0.24 0.26 0  0.27 0.26 0  0.3 0.26 0  0.33 0.26 0  0.36 0.26 0  0.39 0.26 0  0.42 0.26 0  0.45 0.26 0  0.48 0.26 0  0.51 0.26 0  0.54 0.26 0  0.57 0.26 0  0.6 0.26 0  0.63 0.26 0  0.66 0.26 0  0.6899999999999999 0.26 0  0.72 0.26 0  0.75 0.26 0  0.78 0.26 0  0.8100000000000001 0.26 0  0.84 0.26 0  0.87 0.26 0  0.9 0.26 0  0.93 0.26 0  0.96 0.26 0  0.99 0.26 0  1.02 0.26 0  1.05 0.26 0  1.08 0.26 0  1.11 0.26 0  1.14 0.26 0  1.17 0.26 0  1.2 0.26 0  1.23 0.26 0  1.26 0.26 0  1.29 0.26 0  1.32 0.26 0  1.35 0.26 0  1.38 0.26 0  1.41 0.26 0  1.44 0.26 0  1.47 0.26 0  1.5 0.26 0  0 0.28 0  0.03 0.28 0  0.06 0.28 0  0.09 0.28 0  0.12 0.28 0  0.15 0.28 0  0.18 0.28 0  0.21 0.28 0  0.24 0.28 0  0.27 0.28 0  0.3 0.28 0  0.33 0.28 0  0.36 0.28 0  0.39 0.28 0  0.42 0.28 0  0.45 0.28 0  0.48 0.28 0  0.51 0.28 0  0.54 0.28 0  0.57 0.28 0  0.6 0.28 0  0.63 0.28 0  0.66 0.28 0  0.6899999999999999 0.28 0  0.72 0.28 0  0.75 0.28 0  0.78 0.28 0  0.8100000000000001 0.28 0  0.84 0.28 0  0.87 0.28 0  0.9 0.28 0  0.93 0.28 0  0.96 0.28 0  0.99 0.28 0  1.02 0.28
[...]
<PointData  Scalars="sensitivity"> 
<DataArray  type="Float64"  Name="sensitivity"  format="ascii">-1.0619042938203863e-06  -1.6077510516862795e-05  -6.6656958964473876e-05  -1.6967246805033639e-04  -3.2535540140787291e-04  -5.1289022596702504e-04  -7.0375170189677157e-04  -8.7526912203137581e-04  -1.0151423303771476e-03  -1.1197698560244979e-03  -1.1908706685701230e-03  -1.2327358725349109e-03  -1.2505880963576436e-03  -1.2497300441114648e-03  -1.2351182777484699e-03  -1.2111549746478302e-03  -1.1815993705264667e-03  -1.1495508561342449e-03  -1.1174776420681449e-03  -1.0872750391001163e-03  -1.0603423712008948e-03  -1.0376696105662444e-03  -1.0199251349116748e-03  -1.0075361123061623e-03  -1.0007544534312324e-03  -9.9970383732426527e-04  -1.0044057228713230e-03  -1.0147837577808131e-03  -1.0306465431986331e-03  -1.0516491831572636e-03  -1.0772350795559458e-03  -1.1065614115343759e-03  -1.1384136197697611e-03  -1.1711153604476508e-03  -1.2024412796991148e-03  -1.2295427643845655e-03  -1.2489010794472879e-03  -1.2563275839239563e-03  -1.2470349803627588e-03  -1.2158118593196955e-03  -1.1573425916621093e-03  -1.0668435928371230e-03  -9.4132759632968566e-04  -7.8192157627552197e-04  -5.9696739275231635e-04  -4.0454998836964853e-04  -2.3149806133268487e-04  -1.0423785956436567e-04  -3.2954230989858151e-05  -4.5809872314149350e-06  -3.1544505465124658e-08  -8.2405263914810332e-06  -7.2832047104773027e-05  -2.9065846632720190e-04  -7.6386482489615892e-04  -1.5121126537053881e-03  -2.4453180391812834e-03  -3.4212894440075730e-03  -4.3173803098675041e-03  -5.0613265753746868e-03  -5.6274247579688732e-03  -6.0201501084918736e-03  -6.2593230889732652e-03  -6.3708361080199328e-03  -6.3817252479897212e-03  -6.3176605374801135e-03  -6.2016900282196854e-03  -6.0536700078356225e-03  -5.8901021095645722e-03  -5.7242283315909739e-03  -5.5662946875023990e-03  -5.4239236709242335e-03  -5.3025490420083024e-03  -5.2058686095747724e-03  -5.1362697055214301e-03  -5.0951874583884159e-03  -5.0833691644646337e-03  -5.1010318137077000e-03  -5.1479088755580606e-03  -5.2231857279557859e-03  -5.3253248629778838e-03  -5.4517865796397712e-03  -5.5986606195143392e-03  -5.7602354396310536e-03  -5.9285391720316711e-03  -6.0928897085955050e-03  -6.2394972934762096e-03  -6.3511921650261424e-03  -6.4073834768049349e-03  -6.3843701419631907e-03  -6.2561056790395742e-03  -5.9956086412116718e-03  -5.5777177589516119e-03  -4.9844948083461850e-03  -4.2153637605953746e-03  -3.3019942796734514e-03  -2.3227866999854414e-03  -1.4036723252859764e-03  -6.8551374691689553e-04  -2.4982148193758793e-04  -5.8761575148593054e-05  -3.0408668632273552e-06  -2.3541005291630321e-05  -1.4133704647545926e-04  -4.2983121828257429e-04  -1.0427858186132875e-03  -1.9854374760338370e-03  -3.1288226558217119e-03  -4.3011304097727680e-03  -5.3636086699324704e-03  -6.2376413797719764e-03  -6.8976339575261844e-03  -7.3512322482609874e-03  -7.6225151217850376e-03  -7.7421713914621101e-03  -7.7422682214264068e-03  -7.6533976124798248e-03  -7.5031513642665948e-03  -7.3153836275642392e-03  -7.1099616254786070e-03  -6.9028377908435792e-03  -6.7063378552522125e-03  -6.5295933230910550e-03  -6.3790648099410589e-03  -6.2591017590688906e-03  -6.1724767785522570e-03  -6.1208377569699586e-03  -6.1050410930870531e-03  -6.1253509211786766e-03  -6.1815015719433528e-03  -6.2726231178599203e-03  -6.3970296985194890e-03  -6.5518753897166890e-03  -6.7326967729047305e-03  -6.9328800791833211e-03  -7.1431014640606439e-03  -7.3507819527781626e-03  -7.5396025812864203e-03  -7.6891885975270803e-03  -7.7750712244829259e-03  -7.7690761284684240e-03  -7.6402382468848213e-03  -7.3566434085361107e-03  -6.8881469982328691e-03  -6.2115644006753637e-03  -5.3206597326270312e-03  -4.2450715824992420e-03  -3.0672810579621367e-03  -1.9247151307864576e-03  -9.8933942604843448e-04  -3.9426524731813286e-04  -1.2639341335315540e-04  -1.4381519410891200e-05  -3.7943461856385770e-05  -2.3674535613146612e-04  -6.3762730700965098e-04  -1.3979973672805803e-03  -2.4567563993665902e-03  -3.6459533401762231e-03  -4.8074548946650088e-03  -5.8275105890802500e-03  -6.6466361239629493e-03  -7.2519745492213338e-03  -7.6564070155177083e-03  -7.8845460175404544e-03  -7.9663198177301504e-03  -7.9330378973442982e-03  -7.8147532749162328e-03  -7.6387238061898337e-03  -7.4286052218457028e-03  -7.2041237504401915e-03  -6.9810896195702946e-03  -6.7716465978906000e-03  -6.5846844783351227e-03  -6.4263693363895364e-03  -6.3007376536890281e-03  -6.2102763207760479e-03  -6.1564124376014403e-03  -6.1398681767871281e-03  -6.1608692559511182e-03  -6.2192101867279883e-03  -6.3141778199464066e-03  -6.4443290651384870e-03  -6.6071222713224914e-03  -6.7984224388929820e-03  -7.0119305543930874e-03  -7.2386028837221755e-03  -7.4660992112811457e-03  -7.6783079056782231e-03  -7.8550280805949977e-03  -7.9718747352666743e-03  -8.0008554601265752e-03  -7.9115689301460217e-03  -7.6734751245308951e-03  -7.2565216750965665e-03  -6.6365262140536622e-03  -5.7994319582241674e-03  -4.7649956825602854e-03  -3.5937803649237097e-03  -2.3939867038333140e-03  -1.3274339779989510e-03  -5.7227224906597658e-04  -2.0348148907217500e-04  -2.9963525979537649e-05  -3.5210704582734371e-05  -3.5812253246175963e-04  -1.0587994507028633e-03  -2.1395904132764671e-03  -3.3524946826889003e-03  -4.5148600406306142e-03  -5.5722158874563776e-03  -6.4661705605268708e-03  -7.1645539494071368e-03  -7.6674658713790488e-03  -7.9873435930485886e-03  -8.1448803681328594e-03  -8.1671874869412679e-03  -8.0836651617676343e-03  -7.9229427656056922e-03  -7.7112327662265051e-03  -7.4714173857819239e-03  -7.2226023732729436e-03  -6.9800509514213053e-03  -6.7553756713327863e-03  -6.5569061955158678e-03  -6.3902150784671281e-03  -6.2587582189822643e-03  -6.1645211301758719e-03  -6.1085582032361285e-03  -6.0913692523640456e-03  -6.1131128657734516e-03  -6.1736729054503317e-03  -6.2725825808964764e-03  -6.4087943266633923e-03  -6.5802826437528330e-03  -6.7834964795169444e-03  -7.0127325986843233e-03  -7.2595387855974615e-03  -7.5121939679407756e-03  -7.7552382135680610e-03  -7.9690267038690019e-03  -8.1298319822068130e-03  -8.2108776378264914e-03  -8.1830310043518630e-03  -8.0176313771865813e-03  -7.6873267686595565e-03  -7.1785348320285557e-03  -6.4714485638950490e-03  -5.5698376369063473e-03  -4.4939418465442969e-03  -3.3021087620080836e-03  -2.0592667301749528e-03  -9.5302312138715760e-04  -2.7140775677122526e-04  -3.5527714365733946e-05  -3.8565268995868536e-05  -6.7048007869762610e-04  -2.6206120797924192e-03  -5.0337379605734870e-03  -6.4061242786060983e-03  -6.8999800114982824e-03  -7.1689377128397692e-03  -7.5165883088627082e-03  -7.8997495061938101e-03  -8.2195592408346469e-03  -8.4154927341630933e-03  -8.4764658104770733e-03  -8.4191855586472440e-03  -8.2689751035757049e-03  -8.0521476103853473e-03  -7.7934517557350109e-03  -7.5147354739487516e-03  -7.2342565800973127e-03  -6.9665214190860851e-03  -6.7224116833352549e-03  -6.5094734843988951e-03  -6.3324268202332289e-03  -6.1938870324771593e-03  -6.0951235489627000e-03  -6.0366706762474340e-03  -6.0187235948811688e-03  -6.0413479936494135e-03  -6.1045458925970825e-03  -6.2081860792182449e-03  -6.3517731858280142e-03  -6.5340167550308756e-03  -6.7521992199201554e-03  -7.0014549163545268e-03  -7.2741499084416376e-03  -7.5594267192604040e-03  -7.8426832206889112e-03  -8.1051892709641197e-03  -8.3247727569616056e-03  -8.4752727108258919e-03  -8.5288734542598721e-03  -8.4662052884896880e-03  -8.2858975814776355e-03  -8.0168391711297332e-03  -7.7229615977255171e-03  -7.4900790303602518e-03  -7.2630598908761069e-03  -6.6148871141873894e-03  -4.5237467474169239e-03  -1.9132289185203992e-03  -3.8518213298394701e-04  -2.3711715279902471e-05  -3.8973439676045238e-04  -2.8900907585739503e-03  -1.0801809242199848e-02  -1.8779953233502969e-02  -2.1164680258200987e-02  -1.8683561599599934e-02  -1.4395447927213704e-02  -1.0917340504721653e-02  -9.3963057351654968e-03  -9.0406481825441882e-03  -8.9737671725184029e-03  -8.8898870060033410e-03  -8.7286515016497274e-03  -8.4945668089004764e-03  -8.2077131070328237e-03  -7.8904850050065482e-03  -7.5634408850313627e-03  -7.2437862052405133e-03  -6.9450819745066998e-03  -6.6773179526204013e-03  -6.4470406167404671e-03  -6.2578121341617145e-03  -6.1110847493923495e-03  -6.0071572465235082e-03  -5.9458842418659719e-03  -5.9270740350496880e-03  -5.9506733744023477e-03  -6.0168289589087624e-03  -6.1258368218103775e-03  -6.2779306881192111e-03  -6.4728228281174310e-03  -6.7089408491611451e-03  -6.9825280984807765e-03  -7.2869262068127241e-03  -7.6123819327246541e-03  -7.9456403498620719e-03  -8.2696313594348026e-03  -8.5631322774897319e-03  -8.8010321395775599e-03  -8.9747570020389852e-03  -9.0945323827901197e-03  -9.2817355359575936e-03  -9.9148839439855887e-03  -1.1622885480031795e-02  -1.4576079950875178e-02  -1.8334871778308420e-02  -2.1101904734747323e-02  -1.9338846400946470e-02  -1.1647616430846100e-02  -2.2287990159580800e-03  -7.7160184027844450e-05  -1.5414694251297523e-03  -1.7143256879957183e-02  -2.9994145840258783e-02  -3.0675111580255404e-02  -3.0628259878246415e-02  -3.0246689118410098e-02  -2.8860301292085055e-02  -2.3713722856506501e-02  -1.5797549768111024e-02  -1.1365579586741618e-02  -9.9255376466161529e-03  -9.4366481772169518e-03  -9.1041314058442260e-03  -8.7607039978198371e-03  -8.3881619715792111e-03  -8.0003637991308604e-03  -7.6154692461536206e-03  -7.2491824807552558e-03  -6.9138612599840580e-03  -6.6184965370916270e-03  -6.3684307213335827e-03  -6.1656662632467198e-03  -6.0100554595705563e-03  -5.9006157113738892e-03  -5.8363575206251371e-03  -5.8166293847922209e-03  -5.8412339832546326e-03  -5.9104805250542146e-03  -6.0251784094438442e-03  -6.1864866029292731e-03  -6.3954594756466948e-03  -6.6520870212329825e-03  -6.9540421246389655e-03  -7.2957585722205958e-03  -7.6690923074178696e-03  -8.0627477319332955e-03  -8.4613806319745605e-03  -8.8477795100138003e-03  -9.2197498747506341e-03  -9.6271073616548877e-03  -1.0296064718219877e-02  -1.2095946671322227e-02  -1.6058823985117657e-02  -2.2852852000481361e-02  -2.8349813097887810e-02  -3.0061595312338589e-02  -3.0539253713343161e-02  -3.0852023386319247e-02  -3.0832202810643593e-02  -1.6960107013632562e-02  -1.0345157009347457e-03  -8.6500859793159027e-03  -3.0948750455807077e-02  -3.1281118793459989e-02  -3.1267097104956197e-02  -3.1223026340431573e-02  -3.1157448628469999e-02  -3.0958368714807491e-02  -3.0399478531037687e-02  -2.8268790633864740e-02  -2.0583405729023684e-02  -1.3407685190943052e-02  -1.0593185714596724e-02  -9.6393709148596459e-03  -9.0849329857767992e-03  -8.5951218608544249e-03  -8.1210869535188485e-03  -7.6680459322078041e-03  -7.2475850676036102e-03  -6.8700562923068326e-03  -6.5434441197834928e-03  -6.2717244319552678e-03  -6.0547373477971445e-03  -5.8900943340986726e-03  -5.7751555325310294e-03  -5.7079452683371683e-03  -5.6873083253855573e-03  -5.7128799430443611e-03  -5.7851297762204568e-03  -5.9054448680484458e-03  -6.0761016782450430e-03  -6.2999401328897977e-03  -6.5791690503514463e-03  -6.9134100786528464e-03  -7.2982300876922980e-03  -7.7272142219638601e-03  -8.1930337970469568e-03  -8.6892078533112732e-03  -9.2249660405256187e-03  -9.8933417756064661e-03  -1.1148238959818689e-02  -1.4017892094924317e-02  -2.0147375469239233e-02  -2.7657831153715388e-02  -3.0220095459296766e-02  -3.0903063811866555e-02  -3.1155359020570806e-02  -3.1215605062717984e-02  -3.1271819458215951e-02  -3.1421614940635591e-02  -3.1306405510793174e-02  -6.3606008355240693e-03  -1.5595194182257044e-02  -3.1451900703641907e-02  -3.1463740385660521e-02  -3.1429520273914012e-02  -3.1422795847805420e-02  -3.1341084338196247e-02  -3.1258411577460031e-02  -3.1084836323100627e-02  -3.0728163573588325e-02  -2.9675339244554486e-02  -2.4323004854293322e-02  -1.5505011782100139e-02  -1.1167142477970009e-02  -9.6462456426607522e-03  -8.8679326037677062e-03  -8.2600594448599424e-03  -7.7211671211397616e-03  -7.2370859457598679e-03  -6.8110019277386052e-03  -6.4495052491166513e-03  -6.1549734468911736e-03  -5.9239550467010830e-03  -5.7507894464572809e-03  -5.6307523156048211e-03  -5.5608239719575799e-03  -5.5393606446804749e-03  -5.5658076624189971e-03  -5.6407587693316904e-03  -5.7661958937090182e-03  -5.9456628192083912e-03  -6.1843993759248045e-03  -6.4879457583241380e-03  -6.8588117428308639e-03  -7.2940096903277955e-03  -7.7899257627246123e-03  -8.3591155440793513e-03  -9.0291982452748616e-03  -9.9727582212150775e-03  -1.1862871119105625e-02  -1.5927967631119089e-02  -2.3404543348294511e-02  -2.9148307680860758e-02  -3.0721415948415744e-02  -3.1123226206161373e-02  -3.1264109292487553e-02  -3.1387768554234252e-02  -3.1412362631338946e-02  -3.1416598090611411e-02  -3.1417091690169652e-02  -3.1439626233995106e-02  -1.5668809375834952e-02  -1.8858130707982073e-02  -3.2805922290909527e-02  -3.1595324723336989e-02  -3.1500886574750149e-02  -3.1401848184696268e-02  -3.1424770390397753e-02  -3.1395218211945464e-02  -3.1316186597775388e-02  -3.1152857829370120e-02  -3.0872234199375348e-02  -3.0251759693155425e-02  -2.6920763252599518e-02  -1.7994070902809980e-02  -1.1965407655310484e-02  -9.5969274620575466e-03  -8.5232911233990745e-03  -7.8079726916289545e-03  -7.2298257722837687e-03  -6.7408110157908133e-03  -6.3379164118013776e-03  -6.0193018573328387e-03  -5.7750712573365892e-03  -5.5943138391861061e-03  -5.4697548659618910e-03  -5.3974335980930595e-03  -5.3753044434053758e-03  -5.4025931018866222e-03  -5.4799269614119938e-03  -5.6098734870505471e-03  -5.7973737985244191e-03  -6.0509184959959888e-03  -6.3819026138502485e-03  -6.7995402975036846e-03  -7.3079351139828143e-03  -7.9142058378000677e-03  -8.7273877463051285e-03  -1.0041896723045275e-02  -1.2725141159105068e-02  -1.7999287094924290e-02  -2.5972020934747618e-02  -3.0011214967357133e-02  -3.0891716644445417e-02  -3.1202012024746428e-02  -3.1342529205869100e-02  -3.1421879443464987e-02  -3.1412632896268063e-02  -3.1431970612840844e-02  -3.1543219876277853e-02  -3.1673707604449874e-02  -3.3150339524463467e-02  -1.7415721720628576e-02  -2.8794790213900769e-02  -4.6810979252512937e-02  -3.6363337743981414e-02  -3.1923642367917122e-02  -3.1476357122058915e-02  -3.1429131809895344e-02  -3.1423097134252211e-02  -3.1394095539509538e-02  -3.1328755343254286e-02  -3.1188263420725736e-02  -3.0952898363512272e-02  -3.0449459809635582e-02  -2.8688984281791161e-02  -2.1465503462844808e-02  -1.3792886184729323e-02  -9.9755014339426417e-03  -8.3143446341687882e-03  -7.3934100631721112e-03  -6.7460761305465581e-03  -6.2624346645229114e-03  -5.9049977711283248e-03  -5.6418983949973016e-03  -5.4505754233306336e-03  -5.3197135898796297e-03  -5.2442022689425565e-03  -5.2214690752193623e-03  -5.2504174023229912e-03  -5.3316718186428068e-03  -5.4688999941622353e-03  -5.6693165843794682e-03  -5.9470278626557365e-03  -6.3287246344962376e-03  -6.8481640466891251e-03  -7.5639959568328330e-03  -8.6229241701568319e-03  -1.0619154844213363e-02  -1.4309380403879616e-02  -2.0842222334163052e-02  -2.8079223174585714e-02  -3.0361996581860885e-02  -3.1017761567310346e-02  -3.1267124798443797e-02  -3.1363596613653552e-02  -3.1435015299246555e-02  -3.1446833136651933e-02  -3.1471416322541218e-02  -3.1522252447136162e-02  -3.2153178682867559e-02  -3.8179716969114916e-02  -4.8458478552328627e-02  -2.5624838580050761e-02  -3.5263227767548463e-02  -6.0803660121949710e-02  -4.6355953783570589e-02  -3.5968053551395505e-02  -3.1919784276928508e-02  -3.1519103628215521e-02  -3.1439384458323637e-02  -3.1417647597245905e-02  -3.1393800751607782e-02  -3.1334486977920746e-02  -3.1215961159211037e-02  -3.1007263771484210e-02  -3.0657050196900400e-02  -2.9903735115068376e-02  -2.5868776663527989e-02  -1.8415234845552301e-02  -1.2706998477658936e-02  -9.5640195722945451e-03  -7.8904202377440141e-03  -6.9295824876461024e-03  -6.3373525897476250e-03  -5.9493832143958326e-03  -5.6863167839372461e-03  -5.5143664993583157e-03  -5.4185795384342830e-03  -5.3916807508069785e-03  -5.4311496115568240e-03  -5.5393654721780537e-03  -5.7273107897332504e-03  -6.0162803821100690e-03  -6.4496324639958845e-03  -7.1273654681944061e-03  -8.2302242779605395e-03  -1.0081380009701447e-02  -1.3024488782805594e-02  -1.8042374936437972e-02  -2.5076583569964169e-02  -2.9467111607612267e-02  -3.0636894154893041e-02  -3.1098908408477701e-02  -3.1275234024980961e-02  -3.1388379172898405e-02  -3.1451654350490847e-02  -3.1471881644116267e-02  -3.1486225357282065e-02  -3.1540413654768597e-02  -3.2133603659563310e-02  -3.6849240105149762e-02  -4.6808253034885255e-02  -6.0793656896453142e-02  -3.3875894206389111e-02  -3.4203426447436291e-02  -6.3094261702924231e-02  -5.0585456428857770e-02  -4.0222431091658649e-02  -3.3732037115490332e-02  -3.1769311007126468e-02  -3.1510332798509795e-02  -3.1445297011404416e-02  -3.1422656636380643e-02  -3.1401345172013602e-02  -3.1339909269083185e-02  -3.1245940207042407e-02  -3.1090346595095495e-02  -3.0896621024503163e-02  -3.0510516946750298e-02  -2.9388283960309344e-02  -2.6344180708688287e-02  -2.1434768407701466e-02  -1.6989251504288566e-02  -1.3976446503344441e-02  -1.2097234356366105e-02  -1.0897105124265425e-02  -1.0125446498197485e-02  -9.6499000646730580e-03  -9.3937282853203755e-03  -9.3176845793015283e-03  -9.4085333101293408e-03  -9.6756021283644980e-03  -1.0159250970428940e-02  -1.0929732117678398e-02  -1.2106662109494137e-02  -1.3944809356768709e-02  -1.6742421550994879e-02  -2.0909451065677619e-02  -2.5695212732628175e-02  -2.8771617021789458e-02  -3.0297235507886763e-02  -3.0932187041141389e-02  -3.1168751522446948e-02  -3.1290198303548865e-02  -3.1410992682140725e-02  -3.1464410747226564e-02  -3.1483941493171817e-02  -3.1500693501968678e-02  -3.1548797432592472e-02  -3.1876033882817741e-02  -3.4071810070981916e-02  -4.0150594627407513e-02  -4.9981292706116905e-02  -6.2347186360872962e-02  -3.5359814949771730e-02  -2.6142003235314022e-02  -5.2758747751552149e-02  -4.6059546875636410e-02  -3.9782208752091847e-02  -3.4967690834319345e-02  -3.2321382509851899e-02  -3.1657232277478763e-02  -3.1496614295525846e-02  -3.1448349861097666e-02  -3.1431700970264195e-02  -3.1413311236257707e-02  -3.1358366453857776e-02  -3.1280696447754226e-02  -3.1185007474242708e-02  -3.1062326841754983e-02  -3.0877510169854135e-02  -3.0550485665571468e-02  -3.0170437584433194e-02  -2.9750277920681537e-02  -2.8824864724472106e-02  -2.7988470703265492e-02  -2.7244482942866220e-02  -2.6575142169334882e-02  -2.6080050280699686e-02  -2.5781725081511744e-02  -2.5678521542966362e-02  -2.5759823790269368e-02  -2.6021436785082053e-02  -2.6464762612819121e-02  -2.7098067759407384e-02  -2.7854506834544445e-02  -2.8714136372845912e-02  -2.9611576169319993e-02  -3.0091392052423817e-02  -3.0554325323097462e-02  -3.0857428260877902e-02  -3.1087025066429918e-02  -3.1229090598494911e-02  -3.1334823202608941e-02  -3.1437100221994252e-02  -3.1475901189968659e-02  -3.1491258821221120e-02  -3.1504747666741731e-02  -3.1551927454621084e-02  -3.1735448807888623e-02  -3.2439273660084075e-02  -3.4835552990903490e-02  -3.9116729524798735e-02  -4.4950448555668029e-02  -5.1505177265040773e-02  -2.9280522781662131e-02  -1.7370269567956440e-02  -3.6776741669097703e-02  -3.6318066728706536e-02  -3.5205472549868347e-02  -3.3804288131140191e-02  -3.2558447732119251e-02  -3.1875914702399470e-02  -3.1597920046321268e-02  -3.1490477380536112e-02  -3.1454718595535801e-02  -3.1448672686955260e-02  -3.1439342709996647e-02  -3.1397511409724681e-02  -3.1332211294672424e-02  -3.1277623652842812e-02  -3.1208883199482569e-02  -3.1116671848545881e-02  -3.1040891699890966e-02  -3.1001609123728652e-02  -3.0930948487703357e-02  -3.0871825240146453e-02  -3.0864508067860067e-02  -3.0834250934283131e-02  -3.0787835740032451e-02  -3.0754434235363698e-02  -3.0753289505135416e-02  -3.0775704402689591e-02  -3.0798500851043496e-02  -3.0812074449864179e-02  -3.0829259213547410e-02  -3.0862683054840492e-02  -