<?xml version="1.0"?>
<VTKFile type="UnstructuredGrid"  version="0.1"  >
<UnstructuredGrid>
<Piece  NumberOfPoints="2601" NumberOfCells="5000">
<Points>
<DataArray  type="Float64"  NumberOfComponents="3"  format="ascii">0 0 0  0.03 0 0  0.06 0 0  0.09 0 0  0.12 0 0  0.15 0 0  0.18 0 0  0.21 0 0  0.24 0 0  0.27 0 0  0.3 0 0  0.33 0 0  0.36 0 0  0.39 0 0  0.42 0 0  0.45 0 0  0.48 0 0  0.51 0 0  0.54 0 0  0.57 0 0  0.6 0 0  0.63 0 0  0.66 0 0  0.6899999999999999 0 0  0.72 0 0  0.75 0 0  0.78 0 0  0.8100000000000001 0 0  0.84 0 0  0.87 0 0  0.9 0 0  0.93 0 0  0.96 0 0  0.99 0 0  1.02 0 0  1.05 0 0  1.08 0 0  1.11 0 0  1.14 0 0  1.17 0 0  1.2 0 0  1.23 0 0  1.26 0 0  1.29 0 0  1.32 0 0  1.35 0 0  1.38 0 0  1.41 0 0  1.44 0 0  1.47 0 0  1.5 0 0  0 0.02 0  0.03 0.02 0  0.06 0.02 0  0.09 0.02 0  0.12 0.02 0  0.15 0.02 0  0.18 0.02 0  0.21 0.02 0  0.24 0.02 0  0.27 0.02 0  0.3 0.02 0  0.33 0.02 0  0.36 0.02 0  0.39 0.02 0  0.42 0.02 0  0.45 0.02 0  0.48 0.02 0  0.51 0.02 0  0.54 0.02 0  0.57 0.02 0  0.6 0.02 0  0.63 0.02 0  0.66 0.02 0  0.6899999999999999 0.02 0  0.72 0.02 0  0.75 0.02 0  0.78 0.02 0  0.8100000000000001 0.02 0  0.84 0.02 0  0.87 0.02 0  0.9 0.02 0  0.93 0.02 0  0.96 0.02 0  0.99 0.02 0  1.02 0.02 0  1.05 0.02 0  1.08 0.02 0  1.11 0.02 0  1.14 0.02 0  1.17 0.02 0  1.2 0.02 0  1.23 0.02 0  1.26 0.02 0  1.29 0.02 0  1.32 0.02 0  1.35 0.02 0  1.38 0.02 0  1.41 0.02 0  1.44 0.02 0  1.47 0.02 0  1.5 0.02 0  0 0.04 0  0.03 0.04 0  0.06 0.04 0  0.09 0.04 0  0.12 0.04 0  0.15 0.04 0  0.18 0.04 0  0.21 0.04 0  0.24 0.04 0  0.27 0.04 0  0.3 0.04 0  0.33 0.04 0  0.36 0.04 0  0.39 0.04 0  0.42 0.04 0  0.45 0.04 0  0.48 0.04 0  0.51 0.04 0  0.54 0.04 0  0.57 0.04 0  0.6 0.04 0  0.63 0.04 0  0.66 0.04 0  0.6899999999999999 0.04 0  0.72 0.04 0  0.75 0.04 0  0.78 0.04 0  0.8100000000000001 0.04 0  0.84 0.04 0  0.87 0.04 0  0.9 0.04 0  0.93 0.04 0  0.96 0.04 0  0.99 0.04 0  1.02 0.04 0  1.05 0.04 0  1.08 0.04 0  1.11 0.04 0  1.14 0.04 0  1.17 0.04 0  1.2 0.04 0  1.23 0.04 0  1.26 0.04 0  1.29 0.04 0  1.32 0.04 0  1.35 0.04 0  1.38 0.04 0  1.41 0.04 0  1.44 0.04 0  1.47 0.04 0  1.5 0.04 0  0 0.06 0  0.03 0.06 0  0.06 0.06 0  0.09 0.06 0  0.12 0.06 0  0.15 0.06 0  0.18 0.06 0  0.21 0.06 0  0.24 0.06 0  0.27 0.06 0  0.3 0.06 0  0.33 0.06 0  0.36 0.06 0  0.39 0.06 0  0.42 0.06 0  0.45 0.06 0  0.48 0.06 0  0.51 0.06 0  0.54 0.06 0  0.57 0.06 0  0.6 0.06 0  0.63 0.06 0  0.66 0.06 0  0.6899999999999999 0.06 0  0.72 0.06 0  0.75 0.06 0  0.78 0.06 0  0.8100000000000001 0.06 0  0.84 0.06 0  0.87 0.06 0  0.9 0.06 0  0.93 0.06 0  0.96 0.06 0  0.99 0.06 0  1.02 0.06 0  1.05 0.06 0  1.08 0.06 0  1.11 0.06 0  1.14 0.06 0  1.17 0.06 0  1.2 0.06 0  1.23 0.06 0  1.26 0.06 0  1.29 0.06 0  1.32 0.06 0  1.35 0.06 0  1.38 0.06 0  1.41 0.06 0  1.44 0.06 0  1.47 0.06 0  1.5 0.06 0  0 0.08 0  0.03 0.08 0  0.06 0.08 0  0.09 0.08 0  0.12 0.08 0  0.15 0.08 0  0.18 0.08 0  0.21 0.08 0  0.24 0.08 0  0.27 0.08 0  0.3 0.08 0  0.33 0.08 0  0.36 0.08 0  0.39 0.08 0  0.42 0.08 0  0.45 0.08 0  0.48 0.08 0  0.51 0.08 0  0.54 0.08 0  0.57 0.08 0  0.6 0.08 0  0.63 0.08 0  0.66 0.08 0  0.6899999999999999 0.08 0  0.72 0.08 0  0.75 0.08 0  0.78 0.08 0  0.8100000000000001 0.08 0  0.84 0.08 0  0.87 0.08 0  0.9 0.08 0  0.93 0.08 0  0.96 0.08 0  0.99 0.08 0  1.02 0.08 0  1.05 0.08 0  1.08 0.08 0  1.11 0.08 0  1.14 0.08 0  1.17 0.08 0  1.2 0.08 0  1.23 0.08 0  1.26 0.08 0  1.29 0.08 0  1.32 0.08 0  1.35 0.08 0  1.38 0.08 0  1.41 0.08 0  1.44 0.08 0  1.47 0.08 0  1.5 0.08 0  0 0.1 0  0.03 0.1 0  0.06 0.1 0  0.09 0.1 0  0.12 0.1 0  0.15 0.1 0  0.18 0.1 0  0.21 0.1 0  0.24 0.1 0  0.27 0.1 0  0.3 0.1 0  0.33 0.1 0  0.36 0.1 0  0.39 0.1 0  0.42 0.1 0  0.45 0.1 0  0.48 0.1 0  0.51 0.1 0  0.54 0.1 0  0.57 0.1 0  0.6 0.1 0  0.63 0.1 0  0.66 0.1 0  0.6899999999999999 0.1 0  0.72 0.1 0  0.75 0.1 0  0.78 0.1 0  0.8100000000000001 0.1 0  0.84 0.1 0  0.87 0.1 0  0.9 0.1 0  0.93 0.1 0  0.96 0.1 0  0.99 0.1 0  1.02 0.1 0  1.05 0.1 0  1.08 0.1 0  1.11 0.1 0  1.14 0.1 0  1.17 0.1 0  1.2 0.1 0  1.23 0.1 0  1.26 0.1 0  1.29 0.1 0  1.32 0.1 0  1.35 0.1 0  1.38 0.1 0  1.41 0.1 0  1.44 0.1 0  1.47 0.1 0  1.5 0.1 0  0 0.12 0  0.03 0.12 0  0.06 0.12 0  0.09 0.12 0  0.12 0.12 0  0.15 0.12 0  0.18 0.12 0  0.21 0.12 0  0.24 0.12 0  0.27 0.12 0  0.3 0.12 0  0.33 0.12 0  0.36 0.12 0  0.39 0.12 0  0.42 0.12 0  0.45 0.12 0  0.48 0.12 0  0.51 0.12 0  0.54 0.12 0  0.57 0.12 0  0.6 0.12 0  0.63 0.12 0  0.66 0.12 0  0.6899999999999999 0.12 0  0.72 0.12 0  0.75 0.12 0  0.78 0.12 0  0.8100000000000001 0.12 0  0.84 0.12 0  0.87 0.12 0  0.9 0.12 0  0.93 0.12 0  0.96 0.12 0  0.99 0.12 0  1.02 0.12 0  1.05 0.12 0  1.08 0.12 0  1.11 0.12 0  1.14 0.12 0  1.17 0.12 0  1.2 0.12 0  1.23 0.12 0  1.26 0.12 0  1.29 0.12 0  1.32 0.12 0  1.35 0.12 0  1.38 0.12 0  1.41 0.12 0  1.44 0.12 0  1.47 0.12 0  1.5 0.12 0  0 0.14 0  0.03 0.14 0  0.06 0.14 0  0.09 0.14 0  0.12 0.14 0  0.15 0.14 0  0.18 0.14 0  0.21 0.14 0  0.24 0.14 0  0.27 0.14 0  0.3 0.14 0  0.33 0.14 0  0.36 0.14 0  0.39 0.14 0  0.42 0.14 0  0.45 0.14 0  0.48 0.14 0  0.51 0.14 0  0.54 0.14 0  0.57 0.14 0  0.6 0.14 0  0.63 0.14 0  0.66 0.14 0  0.6899999999999999 0.14 0  0.72 0.14 0  0.75 0.14 0  0.78 0.14 0  0.8100000000000001 0.14 0  0.84 0.14 0  0.87 0.14 0  0.9 0.14 0  0.93 0.14 0  0.96 0.14 0  0.99 0.14 0  1.02 0.14 0  1.05 0.14 0  1.08 0.14 0  1.11 0.14 0  1.14 0.14 0  1.17 0.14 0  1.2 0.14 0  1.23 0.14 0  1.26 0.14 0  1.29 0.14 0  1.32 0.14 0  1.35 0.14 0  1.38 0.14 0  1.41 0.14 0  1.44 0.14 0  1.47 0.14 0  1.5 0.14 0  0 0.16 0  0.03 0.16 0  0.06 0.16 0  0.09 0.16 0  0.12 0.16 0  0.15 0.16 0  0.18 0.16 0  0.21 0.16 0  0.24 0.16 0  0.27 0.16 0  0.3 0.16 0  0.33 0.16 0  0.36 0.16 0  0.39 0.16 0  0.42 0.16 0  0.45 0.16 0  0.48 0.16 0  0.51 0.16 0  0.54 0.16 0  0.57 0.16 0  0.6 0.16 0  0.63 0.16 0  0.66 0.16 0  0.6899999999999999 0.16 0  0.72 0.16 0  0.75 0.16 0  0.78 0.16 0  0.8100000000000001 0.16 0  0.84 0.16 0  0.87 0.16 0  0.9 0.16 0  0.93 0.16 0  0.96 0.16 0  0.99 0.16 0  1.02 0.16 0  1.05 0.16 0  1.08 0.16 0  1.11 0.16 0  1.14 0.16 0  1.17 0.16 0  1.2 0.16 0  1.23 0.16 0  1.26 0.16 0  1.29 0.16 0  1.32 0.16 0  1.35 0.16 0  1.38 0.16 0  1.41 0.16 0  1.44 0.16 0  1.47 0.16 0  1.5 0.16 0  0 0.18 0  0.03 0.18 0  0.06 0.18 0  0.09 0.18 0  0.12 0.18 0  0.15 0.18 0  0.18 0.18 0  0.21 0.18 0  0.24 0.18 0  0.27 0.18 0  0.3 0.18 0  0.33 0.18 0  0.36 0.18 0  0.39 0.18 0  0.42 0.18 0  0.45 0.18 0  0.48 0.18 0  0.51 0.18 0  0.54 0.18 0  0.57 0.18 0  0.6 0.18 0  0.63 0.18 0  0.66 0.18 0  0.6899999999999999 0.18 0  0.72 0.18 0  0.75 0.18 0  0.78 0.18 0  0.8100000000000001 0.18 0  0.84 0.18 0  0.87 0.18 0  0.9 0.18 0  0.93 0.18 0  0.96 0.18 0  0.99 0.18 0  1.02 0.18 0  1.05 0.18 0  1.08 0.18 0  1.11 0.18 0  1.14 0.18 0  1.17 0.18 0  1.2 0.18 0  1.23 0.18 0  1.26 0.18 0  1.29 0.18 0  1.32 0.18 0  1.35 0.18 0  1.38 0.18 0  1.41 0.18 0  1.44 0.18 0  1.47 0.18 0  1.5 0.18 0  0 0.2 0  0.03 0.2 0  0.06 0.2 0  0.09 0.2 0  0.12 0.2 0  0.15 0.2 0  0.18 0.2 0  0.21 0.2 0  0.24 0.2 0  0.27 0.2 0  0.3 0.2 0  0.33 0.2 0  0.36 0.2 0  0.39 0.2 0  0.42 0.2 0  0.45 0.2 0  0.48 0.2 0  0.51 0.2 0  0.54 0.2 0  0.57 0.2 0  0.6 0.2 0  0.63 0.2 0  0.66 0.2 0  0.6899999999999999 0.2 0  0.72 0.2 0  0.75 0.2 0  0.78 0.2 0  0.8100000000000001 0.2 0  0.84 0.2 0  0.87 0.2 0  0.9 0.2 0  0.93 0.2 0  0.96 0.2 0  0.99 0.2 0  1.02 0.2 0  1.05 0.2 0  1.08 0.2 0  1.11 0.2 0  1.14 0.2 0  1.17 0.2 0  1.2 0.2 0  1.23 0.2 0  1.26 0.2 0  1.29 0.2 0  1.32 0.2 0  1.35 0.2 0  1.38 0.2 0  1.41 0.2 0  1.44 0.2 0  1.47 0.2 0  1.5 0.2 0  0 0.22 0  0.03 0.22 0  0.06 0.22 0  0.09 0.22 0  0.12 0.22 0  0.15 0.22 0  0.18 0.22 0  0.21 0.22 0  0.24 0.22 0  0.27 0.22 0  0.3 0.22 0  0.33 0.22 0  0.36 0.22 0  0.39 0.22 0  0.42 0.22 0  0.45 0.22 0  0.48 0.22 0  0.51 0.22 0  0.54 0.22 0  0.57 0.22 0  0.6 0.22 0  0.63 0.22 0  0.66 0.22 0  0.6899999999999999 0.22 0  0.72 0.22 0  0.75 0.22 0  0.78 0.22 0  0.8100000000000001 0.22 0  0.84 0.22 0  0.87 0.22 0  0.9 0.22 0  0.93 0.22 0  0.96 0.22 0  0.99 0.22 0  1.02 0.22 0  1.05 0.22 0  1.08 0.22 0  1.11 0.22 0  1.14 0.22 0  1.17 0.22 0  1.2 0.22 0  1.23 0.22 0  1.26 0.22 0  1.29 0.22 0  1.32 0.22 0  1.35 0.22 0  1.38 0.22 0  1.41 0.22 0  1.44 0.22 0  1.47 0.22 0  1.5 0.22 0  0 0.24 0  0.03 0.24 0  0.06 0.24 0  0.09 0.24 0  0.12 0.24 0  0.15 0.24 0  0.18 0.24 0  0.21 0.24 0  0.24 0.24 0  0.27 0.24 0  0.3 0.24 0  0.33 0.24 0  0.36 0.24 0  0.39 0.24 0  0.42 0.24 0  0.45 0.24 0  0.48 0.24 0  0.51 0.24 0  0.54 0.24 0  0.57 0.24 0  0.6 0.24 0  0.63 0.24 0  0.66 0.24 0  0.6899999999999999 0.24 0  0.72 0.24 0  0.75 0.24 0  0.78 0.24 0  0.8100000000000001 0.24 0  0.84 0.24 0  0.87 0.24 0  0.9 0.24 0  0.93 0.24 0  0.96 0.24 0  0.99 0.24 0  1.02 0.24 0  1.05 0.24 0  1.08 0.24 0  1.11 0.24 0  1.14 0.24 0  1.17 0.24 0  1.2 0.24 0  1.23 0.24 0  1.26 0.24 0  1.29 0.24 0  1.32 0.24 0  1.35 0.24 0  1.38 0.24 0  1.41 0.24 0  1.44 0.24 0  1.47 0.24 0  1.5 0.24 0  0 0.26 0  0.03 0.26 0  0.06 0.26 0  0.09 0.26 0  0.12 0.26 0  0.15 0.26 0  0.18 0.26 0  0.21 0.26 0  0.24 0.26 0  0.27 0.26 0  0.3 0.26 0  0.33 0.26 0  0.36 0.26 0  0.39 0.26 0  0.42 0.26 0  0.45 0.26 0  0.48 0.26 0  0.51 0.26 0  0.54 0.26 0  0.57 0.26 0  0.6 0.26 0  0.63 0.26 0  0.66 0.26 0  0.6899999999999999 0.26 0  0.72 0.26 0  0.75 0.26 0  0.78 0.26 0  0.8100000000000001 0.26 0  0.84 0.26 0  0.87 0.26 0  0.9 0.26 0  0.93 0.26 0  0.96 0.26 0  0.99 0.26 0  1.02 0.26 0  1.05 0.26 0  1.08 0.26 0  1.11 0.26 0  1.14 0.26 0  1.17 0.26 0  1.2 0.26 0  1.23 0.26 0  1.26 0.26 0  1.29 0.26 0  1.32 0.26 0  1.35 0.26 0  1.38 0.26 0  1.41 0.26 0  1.44 0.26 0  1.47 0.26 0  1.5 0.26 0  0 0.28 0  0.03 0.28 0  0.06 0.28 0  0.09 0.28 0  0.12 0.28 0  0.15 0.28 0  0.18 0.28 0  0.21 0.28 0  0.24 0.28 0  0.27 0.28 0  0.3 0.28 0  0.33 0.28 0  0.36 0.28 0  0.39 0.28 0  0.42 0.28 0  0.45 0.28 0  0.48 0.28 0  0.51 0.28 0  0.54 0.28 0  0.57 0.28 0  0.6 0.28 0  0.63 0.28 0  0.66 0.28 0  0.6899999999999999 0.28 0  0.72 0.28 0  0.75 0.28 0  0.78 0.28 0  0.8100000000000001 0.28 0  0.84 0.28 0  0.87 0.28 0  0.9 0.28 0  0.93 0.28 0  0.96 0.28 0  0.99 0.28 0  1.02 0.28
[...]
<PointData  Scalars="sensitivity"> 
<DataArray  type="Float64"  Name="sensitivity"  format="ascii">-1.2910677453636554e-06  -1.8368544572408094e-05  -7.6470924968592813e-05  -1.9454288097396578e-04  -3.7291398484328922e-04  -5.8907332534354514e-04  -8.1114233257815614e-04  -1.0120850418212991e-03  -1.1759547494556201e-03  -1.2973866208371471e-03  -1.3779397195941654e-03  -1.4226511238116303e-03  -1.4379847114959229e-03  -1.4307332459364765e-03  -1.4073476946902526e-03  -1.3735300964876779e-03  -1.3340498982330211e-03  -1.2927168444608261e-03  -1.2524387657857027e-03  -1.2153239998782108e-03  -1.1828132851297978e-03  -1.1558291970471194e-03  -1.1349245741090351e-03  -1.1204099998275065e-03  -1.1124480205107867e-03  -1.1111124449614080e-03  -1.1164178246187576e-03  -1.1283244875208772e-03  -1.1467200438386917e-03  -1.1713729501953475e-03  -1.2018517918902826e-03  -1.2374085126284975e-03  -1.2768341752437554e-03  -1.3183051192069695e-03  -1.3592396447766062e-03  -1.3961811412326695e-03  -1.4247263428038297e-03  -1.4395317470618906e-03  -1.4344492334520370e-03  -1.4028462480870267e-03  -1.3380672403714928e-03  -1.2342307086721097e-03  -1.0879454653629703e-03  -9.0137288552970415e-04  -6.8597863731579536e-04  -4.6398782763550490e-04  -2.6562265422096031e-04  -1.1987602412499654e-04  -3.7877442821097868e-05  -5.4250933885998638e-06  -5.1191474516251094e-08  -9.3192392191819949e-06  -7.5396173709991711e-05  -3.0021898133062515e-04  -7.8868185190441589e-04  -1.5600293511836177e-03  -2.5270622122576681e-03  -3.5480236920437344e-03  -4.4927600855704884e-03  -5.2782630946871549e-03  -5.8718192565449020e-03  -6.2756319831940958e-03  -6.5101722779017423e-03  -6.6038959172852194e-03  -6.5877519894885434e-03  -6.4917765134177834e-03  -6.3429210667614406e-03  -6.1639884519231001e-03  -5.9733816457951186e-03  -5.7852975027803573e-03  -5.6101463608263487e-03  -5.4551227525352760e-03  -5.3248814970281930e-03  -5.2222366869075533e-03  -5.1487823781206123e-03  -5.1053640803142676e-03  -5.0923839491972111e-03  -5.1099618585315840e-03  -5.1579818160485897e-03  -5.2360341871401711e-03  -5.3432364648898509e-03  -5.4778997745521937e-03  -5.6370230653723053e-03  -5.8156437408435286e-03  -6.0061269953794278e-03  -6.1974943180864786e-03  -6.3748599728071526e-03  -6.5190503464755828e-03  -6.6065274854472901e-03  -6.6099255737131777e-03  -6.4993424747642704e-03  -6.2442822759723121e-03  -5.8165678420760642e-03  -5.1969021645815851e-03  -4.3868505979826507e-03  -3.4266968985787781e-03  -2.4060858863308131e-03  -1.4547977747268463e-03  -7.1231678519875698e-04  -2.6017020235576024e-04  -6.2082268560440264e-05  -3.5701719604916451e-06  -2.6862862084888401e-05  -1.4658827258855173e-04  -4.3652286093945846e-04  -1.0512113573334953e-03  -1.9925665980044609e-03  -3.1403807944496835e-03  -4.3299017818987018e-03  -5.4153231547693472e-03  -6.3069942823482635e-03  -6.9740813340179036e-03  -7.4229612435838350e-03  -7.6777060959719919e-03  -7.7706475663650151e-03  -7.7373825585606033e-03  -7.6127714634473898e-03  -7.4281251553411547e-03  -7.2099116656931753e-03  -6.9795088358250868e-03  -6.7534218442658646e-03  -6.5437132825587512e-03  -6.3586260579651353e-03  -6.2033835201652648e-03  -6.0810541037892175e-03  -5.9933226840867340e-03  -5.9410614779986442e-03  -5.9246828880257724e-03  -5.9443171617815597e-03  -5.9998651665766961e-03  -6.0909443982670158e-03  -6.2167010143571750e-03  -6.3754314895835022e-03  -6.5639746831241850e-03  -6.7769078440558057e-03  -7.0056790547590453e-03  -7.2378181813117269e-03  -7.4562980464605985e-03  -7.6391162919766187e-03  -7.7591607037102951e-03  -7.7848892760052600e-03  -7.6817219779905556e-03  -7.4151825622453650e-03  -6.9526462854790820e-03  -6.2692286545684497e-03  -5.3588568982799135e-03  -4.2592334710372061e-03  -3.0689089490477791e-03  -1.9264875688433489e-03  -9.9271940840098250e-04  -3.9733581585609353e-04  -1.3032927100222020e-04  -1.6247556274845230e-05  -4.3909056524711509e-05  -2.4834639112377593e-04  -6.4954767840640830e-04  -1.4056430273615367e-03  -2.4500906117543653e-03  -3.6377499371322221e-03  -4.8221187995008017e-03  -5.8680670420843519e-03  -6.7011145006062355e-03  -7.3090841094970507e-03  -7.7064392458345366e-03  -7.9167227799584426e-03  -7.9704702894423333e-03  -7.9027018227621516e-03  -7.7482058211018794e-03  -7.5380428729285992e-03  -7.2983101830975967e-03  -7.0500971599367114e-03  -6.8097014688336122e-03  -6.5889221394044304e-03  -6.3955907345494374e-03  -6.2344102125616394e-03  -6.1079392630053733e-03  -6.0174662896574161e-03  -5.9636140361908072e-03  -5.9466706935224056e-03  -5.9667329518949923e-03  -6.0237464678815772e-03  -6.1174734381517250e-03  -6.2473441279424077e-03  -6.4120952239323315e-03  -6.6091123475223073e-03  -6.8335080331447477e-03  -7.0771493840622599e-03  -7.3278473249975039e-03  -7.5688339175938729e-03  -7.7783895094566098e-03  -7.9295460504962469e-03  -7.9906804425783993e-03  -7.9273800290222719e-03  -7.7087868885378896e-03  -7.3026810817959737e-03  -6.6808821363836196e-03  -5.8265512859287582e-03  -4.7591126189684358e-03  -3.5732295868993354e-03  -2.3860815343209603e-03  -1.3303524539613309e-03  -5.7812933419990433e-04  -2.1133374453387644e-04  -3.4029038736405118e-05  -4.0830969896046174e-05  -3.7370607863918860e-04  -1.0699881933549883e-03  -2.1173924169422000e-03  -3.2687972761596884e-03  -4.4331327218291782e-03  -5.5564744294551984e-03  -6.4964418308008365e-03  -7.2076764135681837e-03  -7.7107613650209180e-03  -8.0244812614645254e-03  -8.1652239286382506e-03  -8.1589428478008996e-03  -8.0398903524808597e-03  -7.8426109869597343e-03  -7.5972225544211304e-03  -7.3287199652765948e-03  -7.0574304495663112e-03  -6.7991704242444514e-03  -6.5652195751633941e-03  -6.3626523592555219e-03  -6.1952493353732456e-03  -6.0647047976307086e-03  -5.9716727199603465e-03  -5.9164045912359214e-03  -5.8990173389169686e-03  -5.9195612728159654e-03  -5.9780339479037388e-03  -6.0743888688997143e-03  -6.2084714291277552e-03  -6.3797132384461209e-03  -6.5864110609080550e-03  -6.8245960189416699e-03  -7.0868446654058052e-03  -7.3615113189838630e-03  -7.6324658808219880e-03  -7.8785421214709710e-03  -8.0735123037644543e-03  -8.1860403382654993e-03  -8.1831919069195822e-03  -8.0367212128013687e-03  -7.7190306766793801e-03  -7.2068123021947093e-03  -6.4828482955463732e-03  -5.5063487451389448e-03  -4.3854714756574580e-03  -3.2403067524872167e-03  -2.0503062613528764e-03  -9.5894685877341600e-04  -2.7961640982129019e-04  -4.0628896744082288e-05  -4.4987357180518853e-05  -7.0697490529128158e-04  -2.6667259794537932e-03  -5.0100799468123713e-03  -6.0228909519234987e-03  -6.4187624474577295e-03  -6.9086047035175442e-03  -7.4354282980585353e-03  -7.8904563257025974e-03  -8.2334115322008471e-03  -8.4368992568962745e-03  -8.4864043176217357e-03  -8.3997466039639947e-03  -8.2121383421059103e-03  -7.9584325059563910e-03  -7.6669609305132034e-03  -7.3608317467866577e-03  -7.0593495533519948e-03  -6.7778726676436885e-03  -6.5271109700860272e-03  -6.3130732602493305e-03  -6.1381503342624348e-03  -6.0027595174698073e-03  -5.9066811372133054e-03  -5.8497116422455949e-03  -5.8317889433647709e-03  -5.8529183500568511e-03  -5.9131374970115202e-03  -6.0125972802027791e-03  -6.1516585949403738e-03  -6.3307233669292187e-03  -6.5494442606824311e-03  -6.8052318944814057e-03  -7.0915940440843001e-03  -7.3975688720582938e-03  -7.7075617280575777e-03  -8.0013171901334463e-03  -8.2554009126895797e-03  -8.4368538511416548e-03  -8.5124173232120071e-03  -8.4476058678114394e-03  -8.2870254531882386e-03  -7.9868760426226575e-03  -7.6399972336191691e-03  -7.2034591758800177e-03  -6.8699965515846969e-03  -6.3585173328768530e-03  -4.3790677368966613e-03  -1.8922043152521555e-03  -3.8662971030395280e-04  -2.7256981591791703e-05  -5.8307296594712124e-04  -3.0279668133817031e-03  -1.0726207246432055e-02  -1.9636818799124729e-02  -2.2351462224890740e-02  -1.8571858864622925e-02  -1.3506626036153473e-02  -1.0108321209660018e-02  -8.9885256872179187e-03  -8.9147936318359679e-03  -8.9535799492226169e-03  -8.8860014747397069e-03  -8.6955018739991591e-03  -8.4206901257694710e-03  -8.0971097355861700e-03  -7.7490025092532841e-03  -7.3963615366508849e-03  -7.0573497302947874e-03  -6.7472065443012503e-03  -6.4762130408386256e-03  -6.2489134443024699e-03  -6.0656147161850422e-03  -5.9248955497179252e-03  -5.8254123729482065e-03  -5.7664877362642595e-03  -5.7479371685249820e-03  -5.7697443565097820e-03  -5.8319435895968488e-03  -5.9348171986226880e-03  -6.0792783269523372e-03  -6.2670131276889038e-03  -6.4996617599708045e-03  -6.7767329099922930e-03  -7.0928099063234306e-03  -7.4374504214545232e-03  -7.7953167285094846e-03  -8.1495352381049779e-03  -8.4783362968375992e-03  -8.7433954972350788e-03  -8.9256022757413876e-03  -8.9840566966088442e-03  -9.1704481464243079e-03  -9.5548004306678039e-03  -1.1094292801029082e-02  -1.3816808077644464e-02  -1.7978251277275793e-02  -2.2234195983166605e-02  -2.0243120193787083e-02  -1.1907334139248004e-02  -2.5119884985492125e-03  -9.2705867341099767e-05  -1.7958591875104886e-03  -1.8667636309583721e-02  -3.1422840505192118e-02  -3.1463691764126882e-02  -3.1456597062420572e-02  -3.1418381730956249e-02  -3.1158100301745081e-02  -2.4919743833940102e-02  -1.4513622256036108e-02  -1.0463090370722612e-02  -9.6692936426861758e-03  -9.3809795935422633e-03  -9.0451547648031320e-03  -8.6617010759247881e-03  -8.2558649698853022e-03  -7.8413243114165282e-03  -7.4332678863884456e-03  -7.0490074159978563e-03  -6.7045862728722233e-03  -6.4103821311936558e-03  -6.1688545616833609e-03  -5.9770811665036351e-03  -5.8310028700410254e-03  -5.7279300485644771e-03  -5.6668287780335114e-03  -5.6475604196194636e-03  -5.6701462083303782e-03  -5.7345242319478580e-03  -5.8409119597598669e-03  -5.9906757887278495e-03  -6.1871223921127561e-03  -6.4347880725602350e-03  -6.7365057050593636e-03  -7.0880586842052415e-03  -7.4788542988383274e-03  -7.8944506760866336e-03  -8.3210802643919855e-03  -8.7326256983435973e-03  -9.1302519279834720e-03  -9.4986251324525074e-03  -9.8733894058117659e-03  -1.1616447046972142e-02  -1.5166441315052267e-02  -2.3253748375987048e-02  -3.1027950011094294e-02  -3.1363861672818578e-02  -3.1452952707805119e-02  -3.1464503389352097e-02  -3.1436052290013380e-02  -1.9020609206525041e-02  -1.7100867463191829e-03  -9.3629339001310864e-03  -3.1481410185782384e-02  -3.1516974289226105e-02  -3.1519051202625173e-02  -3.1511480045679177e-02  -3.1494166969721862e-02  -3.1460288049783187e-02  -3.1411193717746297e-02  -3.1263846306088285e-02  -1.9410444548554947e-02  -1.2104176801171337e-02  -1.0146766586666923e-02  -9.4644118299336312e-03  -8.9308104329107497e-03  -8.4322627491157046e-03  -7.9420559248611061e-03  -7.4694071275850458e-03  -7.0312397370735210e-03  -6.6463439604188684e-03  -6.3265993821215658e-03  -6.0711998119398107e-03  -5.8719455365521516e-03  -5.7210031056174910e-03  -5.6142616176835013e-03  -5.5507151530089695e-03  -5.5306154521538187e-03  -5.5541308853824210e-03  -5.6209430939839428e-03  -5.7307955917315218e-03  -5.8851388164662070e-03  -6.0891152075951450e-03  -6.3515358634537271e-03  -6.6809825306950767e-03  -7.0752451913854743e-03  -7.5194094597215901e-03  -8.0031572110081661e-03  -8.5076843702063080e-03  -9.0428309290154080e-03  -9.6962173636031945e-03  -1.0653065126098716e-02  -1.2963590953149680e-02  -1.9293576671685735e-02  -3.1080725493969247e-02  -3.1457159247533131e-02  -3.1453484421960359e-02  -3.1482537382267022e-02  -3.1506234324756348e-02  -3.1517588229370744e-02  -3.1519160813979145e-02  -3.1491204904411180e-02  -7.0927674498423871e-03  -1.5744628226085678e-02  -3.1509098521298670e-02  -3.1515721129998175e-02  -3.1515754780478453e-02  -3.1515963816927194e-02  -3.1514207490030741e-02  -3.1510132930586666e-02  -3.1486542632790201e-02  -3.1490550791618839e-02  -3.1395864913321234e-02  -2.4628934882497195e-02  -1.3852342131362549e-02  -1.0263751341112114e-02  -9.2664515787563816e-03  -8.6331218006672518e-03  -8.0513998510908930e-03  -7.5037228498998363e-03  -7.0007405666564632e-03  -6.5674725081665579e-03  -6.2209332621574907e-03  -5.9542320196551745e-03  -5.7500337741589261e-03  -5.5952305362348071e-03  -5.4846505578789182e-03  -5.4181846301555557e-03  -5.3970662330169103e-03  -5.4217858632752882e-03  -5.4915420030520338e-03  -5.6048822728118654e-03  -5.7624218335647504e-03  -5.9709501335116202e-03  -6.2459141731458874e-03  -6.6053596537626056e-03  -7.0532635058167033e-03  -7.5550115102608912e-03  -8.1307853748400355e-03  -8.7382828933453682e-03  -9.5409269629402414e-03  -1.1218600524961047e-02  -1.4644428411894650e-02  -2.3149407171006175e-02  -3.1037379139899551e-02  -3.1500821153079374e-02  -3.1534907867616965e-02  -3.1512248071517847e-02  -3.1508411961288715e-02  -3.1509309795317651e-02  -3.1516844223778047e-02  -3.1515439243156952e-02  -3.1509702201892080e-02  -1.5755755687740437e-02  -1.8370414257011566e-02  -3.1714693881440409e-02  -3.1517272694382481e-02  -3.1523280226973024e-02  -3.1514026308245027e-02  -3.1513652309118706e-02  -3.1515313038214060e-02  -3.1518636783009972e-02  -3.1507248391725182e-02  -3.1477421918401007e-02  -3.1369198521924373e-02  -2.9575874623154377e-02  -1.5778128267723467e-02  -1.0438056717510318e-02  -8.9834395490027766e-03  -8.1909272971690469e-03  -7.5441628624427475e-03  -6.9568270158558267e-03  -6.4617554016146378e-03  -6.0890988353436513e-03  -5.8172932700892906e-03  -5.6126194414394120e-03  -5.4551531733292337e-03  -5.3400328801220254e-03  -5.2697122300815226e-03  -5.2472645476220482e-03  -5.2737113504265076e-03  -5.3474970358110118e-03  -5.4649274231500294e-03  -5.6238636187317115e-03  -5.8318033268142770e-03  -6.1141595065790097e-03  -6.5031023144193475e-03  -7.0332137795023212e-03  -7.6083468202476053e-03  -8.3433532940929006e-03  -9.2804561237212098e-03  -1.1653871053948991e-02  -1.6436093460100346e-02  -2.7455583756253118e-02  -3.1481430161598371e-02  -3.1445199627777531e-02  -3.1499220012938235e-02  -3.1520384672618355e-02  -3.1511711835585911e-02  -3.1512226412921215e-02  -3.1516395271544879e-02  -3.1522626175489128e-02  -3.1516882162494597e-02  -3.1980421556666798e-02  -1.6694014836880933e-02  -2.8545008136343055e-02  -4.6193099894343420e-02  -3.5677732022261710e-02  -3.1540233036397518e-02  -3.1521888699709920e-02  -3.1516126952308876e-02  -3.1514081981823087e-02  -3.1515376800736856e-02  -3.1519617711029325e-02  -3.1508153529593221e-02  -3.1469361864983905e-02  -3.1422813757733106e-02  -3.1142777076164137e-02  -1.9393319726701757e-02  -1.1554229441550986e-02  -8.7816899192028845e-03  -7.7288096442588820e-03  -6.9484430226067050e-03  -6.3450422414745170e-03  -5.9430995526745739e-03  -5.6732718980241998e-03  -5.4719509653493236e-03  -5.3109995221175890e-03  -5.1886399743349999e-03  -5.1124454905978637e-03  -5.0881468994465754e-03  -5.1174252971865463e-03  -5.1980685297836823e-03  -5.3234602293056677e-03  -5.4852495398981672e-03  -5.6899035015065824e-03  -5.9771761991211682e-03  -6.4055440177307934e-03  -7.1081122086380207e-03  -7.9077457705429375e-03  -9.5130210707358668e-03  -1.2628359782247845e-02  -1.9150027961391917e-02  -3.0477611585608667e-02  -3.1377482258270070e-02  -3.1499648821840101e-02  -3.1517473439735030e-02  -3.1506794431247064e-02  -3.1513635431280954e-02  -3.1513719976481537e-02  -3.1517991207172968e-02  -3.1519310354850436e-02  -3.1552484155778604e-02  -3.7755470406026045e-02  -4.7971185846388362e-02  -2.5126614776060145e-02  -3.5088303612431912e-02  -6.0557819844543691e-02  -4.6034022403824322e-02  -3.5323185958833596e-02  -3.1537693075608254e-02  -3.1523843454727862e-02  -3.1517261502693392e-02  -3.1514128790784961e-02  -3.1513646598289147e-02  -3.1516557647302913e-02  -3.1510791850473549e-02  -3.1482944286917260e-02  -3.1475480798089449e-02  -3.1324251096455966e-02  -2.6636474620161298e-02  -1.5944149613711708e-02  -1.0525498363902963e-02  -7.9816104768403971e-03  -6.7584599194997728e-03  -6.1297323267952529e-03  -5.7633934056111110e-03  -5.5091094415361105e-03  -5.3100000239636215e-03  -5.1602151871534925e-03  -5.0689490552033164e-03  -5.0413719038461422e-03  -5.0789099759883296e-03  -5.1812989941687490e-03  -5.3441175777317858e-03  -5.5571091424303325e-03  -5.8393790162690846e-03  -6.2783315989058510e-03  -7.0490010651662327e-03  -8.7946107572663534e-03  -1.1405065152555006e-02  -1.5770237222688173e-02  -2.5289330452177107e-02  -3.1461377797219296e-02  -3.1438029698102048e-02  -3.1458023977476005e-02  -3.1506954178170100e-02  -3.1506929577143135e-02  -3.1510396910530737e-02  -3.1513767158988154e-02  -3.1517971048504186e-02  -3.1520357136552692e-02  -3.1551221545738015e-02  -3.6378750895690246e-02  -4.6473333876432488e-02  -6.0512429266525981e-02  -3.3675600940217938e-02  -3.4022176998322461e-02  -6.2920657037926250e-02  -5.0485235997052798e-02  -3.9864435333222197e-02  -3.2862361099027335e-02  -3.1529936924921662e-02  -3.1522582561304378e-02  -3.1518241477743583e-02  -3.1513776738998411e-02  -3.1511599296788387e-02  -3.1516336981330530e-02  -3.1516829206700563e-02  -3.1499346790883946e-02  -3.1470852108373255e-02  -3.1416330074366478e-02  -3.1342997008345606e-02  -2.8004756989053487e-02  -1.9601971643512281e-02  -1.4524797954428586e-02  -1.1858789563148937e-02  -1.0268722663295685e-02  -9.2366148083371461e-03  -8.5490899650398217e-03  -8.1193258087403977e-03  -7.8960797611221829e-03  -7.8415477424854836e-03  -7.9433027989075713e-03  -8.2151739288658047e-03  -8.6839865350255129e-03  -9.3661469703638159e-03  -1.0354775506721973e-02  -1.1907601636287887e-02  -1.4445592341158256e-02  -1.9172777460959359e-02  -2.7253901123875691e-02  -3.1287538576815328e-02  -3.1413311436244075e-02  -3.1494308976957937e-02  -3.1519799061488406e-02  -3.1503130514035950e-02  -3.1502656768236117e-02  -3.1509064579577709e-02  -3.1512221514356696e-02  -3.1516839179341713e-02  -3.1519604618192192e-02  -3.1529718400437036e-02  -3.3368590777221464e-02  -3.9807283488275814e-02  -4.9836784436805330e-02  -6.2151017271020730e-02  -3.5187568687553038e-02  -2.5792396282557209e-02  -5.2494264406047771e-02  -4.5941154560984479e-02  -3.9549027677106587e-02  -3.4278816100003016e-02  -3.1576753341078401e-02  -3.1529114658945936e-02  -3.1520817185293433e-02  -3.1518855168933921e-02  -3.1513426859447254e-02  -3.1511510582614081e-02  -3.1516887346778738e-02  -3.1521051563753774e-02  -3.1511225627706335e-02  -3.1487389019383000e-02  -3.1481733687964190e-02  -3.1460894780857410e-02  -3.1363362320076478e-02  -3.1345742916956625e-02  -3.1212798003734093e-02  -3.1074980122010674e-02  -3.0666146957589062e-02  -2.9921411689162351e-02  -2.9135913891000755e-02  -2.8595896985915505e-02  -2.8401318820757471e-02  -2.8561452666427251e-02  -2.9069259766735273e-02  -2.9845987433963120e-02  -3.0616342233120361e-02  -3.1014275464970657e-02  -3.1175420601146659e-02  -3.1337466264798830e-02  -3.1371212656529944e-02  -3.1411824099794698e-02  -3.1479844723875341e-02  -3.1501624999805120e-02  -3.1517066693233391e-02  -3.1512814404046588e-02  -3.1505420563276224e-02  -3.1507818719669421e-02  -3.1512217443915899e-02  -3.1515085124091492e-02  -3.1521025577688100e-02  -3.1520319797352855e-02  -3.1600828686046530e-02  -3.4160523353289313e-02  -3.8795974148034033e-02  -4.4796656530615812e-02  -5.1215070950807025e-02  -2.9062921600366529e-02  -1.6742282931859549e-02  -3.6214716338733619e-02  -3.5950956910490488e-02  -3.4751878624305461e-02  -3.3048757805958430e-02  -3.1649668452792330e-02  -3.1531517401453539e-02  -3.1526526568060084e-02  -3.1521539558992583e-02  -3.1518784474530666e-02  -3.1514332414667438e-02  -3.1512222978829010e-02  -3.1516216234100010e-02  -3.1522605477808878e-02  -3.1523923115954679e-02  -3.1519829179730306e-02  -3.1506927877971935e-02  -3.1482350914216903e-02  -3.1474916735168210e-02  -3.1476032802819034e-02  -3.1474134975633561e-02  -3.1480856326432986e-02  -3.1468655988951280e-02  -3.1460540219399966e-02  -3.1466558002190143e-02  -3.1470681953148373e-02  -3.1469089934021054e-02  -3.1462982312102157e-02  -3.1460311578103133e-02  -3.1475506121365841e-02  -3.1483606708688994e-02  -