<?xml version="1.0"?>
<VTKFile type="UnstructuredGrid"  version="0.1"  >
<UnstructuredGrid>
<Piece  NumberOfPoints="2601" NumberOfCells="5000">
<Points>
<DataArray  type="Float64"  NumberOfComponents="3"  format="ascii">0 0 0  0.03 0 0  0.06 0 0  0.09 0 0  0.12 0 0  0.15 0 0  0.18 0 0  0.21 0 0  0.24 0 0  0.27 0 0  0.3 0 0  0.33 0 0  0.36 0 0  0.39 0 0  0.42 0 0  0.45 0 0  0.48 0 0  0.51 0 0  0.54 0 0  0.57 0 0  0.6 0 0  0.63 0 0  0.66 0 0  0.6899999999999999 0 0  0.72 0 0  0.75 0 0  0.78 0 0  0.8100000000000001 0 0  0.84 0 0  0.87 0 0  0.9 0 0  0.93 0 0  0.96 0 0  0.99 0 0  1.02 0 0  1.05 0 0  1.08 0 0  1.11 0 0  1.14 0 0  1.17 0 0  1.2 0 0  1.23 0 0  1.26 0 0  1.29 0 0  1.32 0 0  1.35 0 0  1.38 0 0  1.41 0 0  1.44 0 0  1.47 0 0  1.5 0 0  0 0.02 0  0.03 0.02 0  0.06 0.02 0  0.09 0.02 0  0.12 0.02 0  0.15 0.02 0  0.18 0.02 0  0.21 0.02 0  0.24 0.02 0  0.27 0.02 0  0.3 0.02 0  0.33 0.02 0  0.36 0.02 0  0.39 0.02 0  0.42 0.02 0  0.45 0.02 0  0.48 0.02 0  0.51 0.02 0  0.54 0.02 0  0.57 0.02 0  0.6 0.02 0  0.63 0.02 0  0.66 0.02 0  0.6899999999999999 0.02 0  0.72 0.02 0  0.75 0.02 0  0.78 0.02 0  0.8100000000000001 0.02 0  0.84 0.02 0  0.87 0.02 0  0.9 0.02 0  0.93 0.02 0  0.96 0.02 0  0.99 0.02 0  1.02 0.02 0  1.05 0.02 0  1.08 0.02 0  1.11 0.02 0  1.14 0.02 0  1.17 0.02 0  1.2 0.02 0  1.23 0.02 0  1.26 0.02 0  1.29 0.02 0  1.32 0.02 0  1.35 0.02 0  1.38 0.02 0  1.41 0.02 0  1.44 0.02 0  1.47 0.02 0  1.5 0.02 0  0 0.04 0  0.03 0.04 0  0.06 0.04 0  0.09 0.04 0  0.12 0.04 0  0.15 0.04 0  0.18 0.04 0  0.21 0.04 0  0.24 0.04 0  0.27 0.04 0  0.3 0.04 0  0.33 0.04 0  0.36 0.04 0  0.39 0.04 0  0.42 0.04 0  0.45 0.04 0  0.48 0.04 0  0.51 0.04 0  0.54 0.04 0  0.57 0.04 0  0.6 0.04 0  0.63 0.04 0  0.66 0.04 0  0.6899999999999999 0.04 0  0.72 0.04 0  0.75 0.04 0  0.78 0.04 0  0.8100000000000001 0.04 0  0.84 0.04 0  0.87 0.04 0  0.9 0.04 0  0.93 0.04 0  0.96 0.04 0  0.99 0.04 0  1.02 0.04 0  1.05 0.04 0  1.08 0.04 0  1.11 0.04 0  1.14 0.04 0  1.17 0.04 0  1.2 0.04 0  1.23 0.04 0  1.26 0.04 0  1.29 0.04 0  1.32 0.04 0  1.35 0.04 0  1.38 0.04 0  1.41 0.04 0  1.44 0.04 0  1.47 0.04 0  1.5 0.04 0  0 0.06 0  0.03 0.06 0  0.06 0.06 0  0.09 0.06 0  0.12 0.06 0  0.15 0.06 0  0.18 0.06 0  0.21 0.06 0  0.24 0.06 0  0.27 0.06 0  0.3 0.06 0  0.33 0.06 0  0.36 0.06 0  0.39 0.06 0  0.42 0.06 0  0.45 0.06 0  0.48 0.06 0  0.51 0.06 0  0.54 0.06 0  0.57 0.06 0  0.6 0.06 0  0.63 0.06 0  0.66 0.06 0  0.6899999999999999 0.06 0  0.72 0.06 0  0.75 0.06 0  0.78 0.06 0  0.8100000000000001 0.06 0  0.84 0.06 0  0.87 0.06 0  0.9 0.06 0  0.93 0.06 0  0.96 0.06 0  0.99 0.06 0  1.02 0.06 0  1.05 0.06 0  1.08 0.06 0  1.11 0.06 0  1.14 0.06 0  1.17 0.06 0  1.2 0.06 0  1.23 0.06 0  1.26 0.06 0  1.29 0.06 0  1.32 0.06 0  1.35 0.06 0  1.38 0.06 0  1.41 0.06 0  1.44 0.06 0  1.47 0.06 0  1.5 0.06 0  0 0.08 0  0.03 0.08 0  0.06 0.08 0  0.09 0.08 0  0.12 0.08 0  0.15 0.08 0  0.18 0.08 0  0.21 0.08 0  0.24 0.08 0  0.27 0.08 0  0.3 0.08 0  0.33 0.08 0  0.36 0.08 0  0.39 0.08 0  0.42 0.08 0  0.45 0.08 0  0.48 0.08 0  0.51 0.08 0  0.54 0.08 0  0.57 0.08 0  0.6 0.08 0  0.63 0.08 0  0.66 0.08 0  0.6899999999999999 0.08 0  0.72 0.08 0  0.75 0.08 0  0.78 0.08 0  0.8100000000000001 0.08 0  0.84 0.08 0  0.87 0.08 0  0.9 0.08 0  0.93 0.08 0  0.96 0.08 0  0.99 0.08 0  1.02 0.08 0  1.05 0.08 0  1.08 0.08 0  1.11 0.08 0  1.14 0.08 0  1.17 0.08 0  1.2 0.08 0  1.23 0.08 0  1.26 0.08 0  1.29 0.08 0  1.32 0.08 0  1.35 0.08 0  1.38 0.08 0  1.41 0.08 0  1.44 0.08 0  1.47 0.08 0  1.5 0.08 0  0 0.1 0  0.03 0.1 0  0.06 0.1 0  0.09 0.1 0  0.12 0.1 0  0.15 0.1 0  0.18 0.1 0  0.21 0.1 0  0.24 0.1 0  0.27 0.1 0  0.3 0.1 0  0.33 0.1 0  0.36 0.1 0  0.39 0.1 0  0.42 0.1 0  0.45 0.1 0  0.48 0.1 0  0.51 0.1 0  0.54 0.1 0  0.57 0.1 0  0.6 0.1 0  0.63 0.1 0  0.66 0.1 0  0.6899999999999999 0.1 0  0.72 0.1 0  0.75 0.1 0  0.78 0.1 0  0.8100000000000001 0.1 0  0.84 0.1 0  0.87 0.1 0  0.9 0.1 0  0.93 0.1 0  0.96 0.1 0  0.99 0.1 0  1.02 0.1 0  1.05 0.1 0  1.08 0.1 0  1.11 0.1 0  1.14 0.1 0  1.17 0.1 0  1.2 0.1 0  1.23 0.1 0  1.26 0.1 0  1.29 0.1 0  1.32 0.1 0  1.35 0.1 0  1.38 0.1 0  1.41 0.1 0  1.44 0.1 0  1.47 0.1 0  1.5 0.1 0  0 0.12 0  0.03 0.12 0  0.06 0.12 0  0.09 0.12 0  0.12 0.12 0  0.15 0.12 0  0.18 0.12 0  0.21 0.12 0  0.24 0.12 0  0.27 0.12 0  0.3 0.12 0  0.33 0.12 0  0.36 0.12 0  0.39 0.12 0  0.42 0.12 0  0.45 0.12 0  0.48 0.12 0  0.51 0.12 0  0.54 0.12 0  0.57 0.12 0  0.6 0.12 0  0.63 0.12 0  0.66 0.12 0  0.6899999999999999 0.12 0  0.72 0.12 0  0.75 0.12 0  0.78 0.12 0  0.8100000000000001 0.12 0  0.84 0.12 0  0.87 0.12 0  0.9 0.12 0  0.93 0.12 0  0.96 0.12 0  0.99 0.12 0  1.02 0.12 0  1.05 0.12 0  1.08 0.12 0  1.11 0.12 0  1.14 0.12 0  1.17 0.12 0  1.2 0.12 0  1.23 0.12 0  1.26 0.12 0  1.29 0.12 0  1.32 0.12 0  1.35 0.12 0  1.38 0.12 0  1.41 0.12 0  1.44 0.12 0  1.47 0.12 0  1.5 0.12 0  0 0.14 0  0.03 0.14 0  0.06 0.14 0  0.09 0.14 0  0.12 0.14 0  0.15 0.14 0  0.18 0.14 0  0.21 0.14 0  0.24 0.14 0  0.27 0.14 0  0.3 0.14 0  0.33 0.14 0  0.36 0.14 0  0.39 0.14 0  0.42 0.14 0  0.45 0.14 0  0.48 0.14 0  0.51 0.14 0  0.54 0.14 0  0.57 0.14 0  0.6 0.14 0  0.63 0.14 0  0.66 0.14 0  0.6899999999999999 0.14 0  0.72 0.14 0  0.75 0.14 0  0.78 0.14 0  0.8100000000000001 0.14 0  0.84 0.14 0  0.87 0.14 0  0.9 0.14 0  0.93 0.14 0  0.96 0.14 0  0.99 0.14 0  1.02 0.14 0  1.05 0.14 0  1.08 0.14 0  1.11 0.14 0  1.14 0.14 0  1.17 0.14 0  1.2 0.14 0  1.23 0.14 0  1.26 0.14 0  1.29 0.14 0  1.32 0.14 0  1.35 0.14 0  1.38 0.14 0  1.41 0.14 0  1.44 0.14 0  1.47 0.14 0  1.5 0.14 0  0 0.16 0  0.03 0.16 0  0.06 0.16 0  0.09 0.16 0  0.12 0.16 0  0.15 0.16 0  0.18 0.16 0  0.21 0.16 0  0.24 0.16 0  0.27 0.16 0  0.3 0.16 0  0.33 0.16 0  0.36 0.16 0  0.39 0.16 0  0.42 0.16 0  0.45 0.16 0  0.48 0.16 0  0.51 0.16 0  0.54 0.16 0  0.57 0.16 0  0.6 0.16 0  0.63 0.16 0  0.66 0.16 0  0.6899999999999999 0.16 0  0.72 0.16 0  0.75 0.16 0  0.78 0.16 0  0.8100000000000001 0.16 0  0.84 0.16 0  0.87 0.16 0  0.9 0.16 0  0.93 0.16 0  0.96 0.16 0  0.99 0.16 0  1.02 0.16 0  1.05 0.16 0  1.08 0.16 0  1.11 0.16 0  1.14 0.16 0  1.17 0.16 0  1.2 0.16 0  1.23 0.16 0  1.26 0.16 0  1.29 0.16 0  1.32 0.16 0  1.35 0.16 0  1.38 0.16 0  1.41 0.16 0  1.44 0.16 0  1.47 0.16 0  1.5 0.16 0  0 0.18 0  0.03 0.18 0  0.06 0.18 0  0.09 0.18 0  0.12 0.18 0  0.15 0.18 0  0.18 0.18 0  0.21 0.18 0  0.24 0.18 0  0.27 0.18 0  0.3 0.18 0  0.33 0.18 0  0.36 0.18 0  0.39 0.18 0  0.42 0.18 0  0.45 0.18 0  0.48 0.18 0  0.51 0.18 0  0.54 0.18 0  0.57 0.18 0  0.6 0.18 0  0.63 0.18 0  0.66 0.18 0  0.6899999999999999 0.18 0  0.72 0.18 0  0.75 0.18 0  0.78 0.18 0  0.8100000000000001 0.18 0  0.84 0.18 0  0.87 0.18 0  0.9 0.18 0  0.93 0.18 0  0.96 0.18 0  0.99 0.18 0  1.02 0.18 0  1.05 0.18 0  1.08 0.18 0  1.11 0.18 0  1.14 0.18 0  1.17 0.18 0  1.2 0.18 0  1.23 0.18 0  1.26 0.18 0  1.29 0.18 0  1.32 0.18 0  1.35 0.18 0  1.38 0.18 0  1.41 0.18 0  1.44 0.18 0  1.47 0.18 0  1.5 0.18 0  0 0.2 0  0.03 0.2 0  0.06 0.2 0  0.09 0.2 0  0.12 0.2 0  0.15 0.2 0  0.18 0.2 0  0.21 0.2 0  0.24 0.2 0  0.27 0.2 0  0.3 0.2 0  0.33 0.2 0  0.36 0.2 0  0.39 0.2 0  0.42 0.2 0  0.45 0.2 0  0.48 0.2 0  0.51 0.2 0  0.54 0.2 0  0.57 0.2 0  0.6 0.2 0  0.63 0.2 0  0.66 0.2 0  0.6899999999999999 0.2 0  0.72 0.2 0  0.75 0.2 0  0.78 0.2 0  0.8100000000000001 0.2 0  0.84 0.2 0  0.87 0.2 0  0.9 0.2 0  0.93 0.2 0  0.96 0.2 0  0.99 0.2 0  1.02 0.2 0  1.05 0.2 0  1.08 0.2 0  1.11 0.2 0  1.14 0.2 0  1.17 0.2 0  1.2 0.2 0  1.23 0.2 0  1.26 0.2 0  1.29 0.2 0  1.32 0.2 0  1.35 0.2 0  1.38 0.2 0  1.41 0.2 0  1.44 0.2 0  1.47 0.2 0  1.5 0.2 0  0 0.22 0  0.03 0.22 0  0.06 0.22 0  0.09 0.22 0  0.12 0.22 0  0.15 0.22 0  0.18 0.22 0  0.21 0.22 0  0.24 0.22 0  0.27 0.22 0  0.3 0.22 0  0.33 0.22 0  0.36 0.22 0  0.39 0.22 0  0.42 0.22 0  0.45 0.22 0  0.48 0.22 0  0.51 0.22 0  0.54 0.22 0  0.57 0.22 0  0.6 0.22 0  0.63 0.22 0  0.66 0.22 0  0.6899999999999999 0.22 0  0.72 0.22 0  0.75 0.22 0  0.78 0.22 0  0.8100000000000001 0.22 0  0.84 0.22 0  0.87 0.22 0  0.9 0.22 0  0.93 0.22 0  0.96 0.22 0  0.99 0.22 0  1.02 0.22 0  1.05 0.22 0  1.08 0.22 0  1.11 0.22 0  1.14 0.22 0  1.17 0.22 0  1.2 0.22 0  1.23 0.22 0  1.26 0.22 0  1.29 0.22 0  1.32 0.22 0  1.35 0.22 0  1.38 0.22 0  1.41 0.22 0  1.44 0.22 0  1.47 0.22 0  1.5 0.22 0  0 0.24 0  0.03 0.24 0  0.06 0.24 0  0.09 0.24 0  0.12 0.24 0  0.15 0.24 0  0.18 0.24 0  0.21 0.24 0  0.24 0.24 0  0.27 0.24 0  0.3 0.24 0  0.33 0.24 0  0.36 0.24 0  0.39 0.24 0  0.42 0.24 0  0.45 0.24 0  0.48 0.24 0  0.51 0.24 0  0.54 0.24 0  0.57 0.24 0  0.6 0.24 0  0.63 0.24 0  0.66 0.24 0  0.6899999999999999 0.24 0  0.72 0.24 0  0.75 0.24 0  0.78 0.24 0  0.8100000000000001 0.24 0  0.84 0.24 0  0.87 0.24 0  0.9 0.24 0  0.93 0.24 0  0.96 0.24 0  0.99 0.24 0  1.02 0.24 0  1.05 0.24 0  1.08 0.24 0  1.11 0.24 0  1.14 0.24 0  1.17 0.24 0  1.2 0.24 0  1.23 0.24 0  1.26 0.24 0  1.29 0.24 0  1.32 0.24 0  1.35 0.24 0  1.38 0.24 0  1.41 0.24 0  1.44 0.24 0  1.47 0.24 0  1.5 0.24 0  0 0.26 0  0.03 0.26 0  0.06 0.26 0  0.09 0.26 0  0.12 0.26 0  0.15 0.26 0  0.18 0.26 0  0.21 0.26 0  0.24 0.26 0  0.27 0.26 0  0.3 0.26 0  0.33 0.26 0  0.36 0.26 0  0.39 0.26 0  0.42 0.26 0  0.45 0.26 0  0.48 0.26 0  0.51 0.26 0  0.54 0.26 0  0.57 0.26 0  0.6 0.26 0  0.63 0.26 0  0.66 0.26 0  0.6899999999999999 0.26 0  0.72 0.26 0  0.75 0.26 0  0.78 0.26 0  0.8100000000000001 0.26 0  0.84 0.26 0  0.87 0.26 0  0.9 0.26 0  0.93 0.26 0  0.96 0.26 0  0.99 0.26 0  1.02 0.26 0  1.05 0.26 0  1.08 0.26 0  1.11 0.26 0  1.14 0.26 0  1.17 0.26 0  1.2 0.26 0  1.23 0.26 0  1.26 0.26 0  1.29 0.26 0  1.32 0.26 0  1.35 0.26 0  1.38 0.26 0  1.41 0.26 0  1.44 0.26 0  1.47 0.26 0  1.5 0.26 0  0 0.28 0  0.03 0.28 0  0.06 0.28 0  0.09 0.28 0  0.12 0.28 0  0.15 0.28 0  0.18 0.28 0  0.21 0.28 0  0.24 0.28 0  0.27 0.28 0  0.3 0.28 0  0.33 0.28 0  0.36 0.28 0  0.39 0.28 0  0.42 0.28 0  0.45 0.28 0  0.48 0.28 0  0.51 0.28 0  0.54 0.28 0  0.57 0.28 0  0.6 0.28 0  0.63 0.28 0  0.66 0.28 0  0.6899999999999999 0.28 0  0.72 0.28 0  0.75 0.28 0  0.78 0.28 0  0.8100000000000001 0.28 0  0.84 0.28 0  0.87 0.28 0  0.9 0.28 0  0.93 0.28 0  0.96 0.28 0  0.99 0.28 0  1.02 0.28
[...]
<PointData  Scalars="sensitivity"> 
<DataArray  type="Float64"  Name="sensitivity"  format="ascii">-1.3042978690771388e-06  -1.8495184526599867e-05  -7.7025128937909912e-05  -1.9596270595137482e-04  -3.7566447871436757e-04  -5.9353444083009373e-04  -8.1744464720689763e-04  -1.0200436988071677e-03  -1.1851963911656675e-03  -1.3074974015942055e-03  -1.3885020800213483e-03  -1.4332424715580534e-03  -1.4482260141397045e-03  -1.4403628667440035e-03  -1.4162549691274708e-03  -1.3817328700276186e-03  -1.3416461452872876e-03  -1.2998402307174970e-03  -1.2592276968867069e-03  -1.2219016717244168e-03  -1.1892757371082727e-03  -1.1622409867456339e-03  -1.1413218875847852e-03  -1.1268088290412451e-03  -1.1188532454428960e-03  -1.1175244130298997e-03  -1.1228360025714429e-03  -1.1347506446362948e-03  -1.1531638879568845e-03  -1.1778608240113815e-03  -1.2084358111488958e-03  -1.2441718778112038e-03  -1.2838892646508254e-03  -1.3257830406442749e-03  -1.3672709249020157e-03  -1.4048667887820564e-03  -1.4341015410670045e-03  -1.4495334790357785e-03  -1.4449055205750852e-03  -1.4134869303725156e-03  -1.3485359785715789e-03  -1.2440959520792425e-03  -1.0967458095570174e-03  -9.0865345953254628e-04  -6.9142247896348218e-04  -4.6758839373595477e-04  -2.6766525538645514e-04  -1.2080898067390191e-04  -3.8171144459241110e-05  -5.4757515461431930e-06  -5.2715183592940084e-08  -9.3789565811578440e-06  -7.5541925121453321e-05  -3.0079201476012772e-04  -7.9022301566725943e-04  -1.5631367337622987e-03  -2.5325318013426539e-03  -3.5563738202791266e-03  -4.5037245417605632e-03  -5.2910699562967707e-03  -5.8856791224993063e-03  -6.2897456312623673e-03  -6.5235548011664830e-03  -6.6155058819593613e-03  -6.5968516053223148e-03  -6.4981588602561272e-03  -6.3468623444893147e-03  -6.1660506675294208e-03  -5.9742214731067726e-03  -5.7855377896787932e-03  -5.6102984933340296e-03  -5.4555419425767757e-03  -5.3257523496035358e-03  -5.2235909825103077e-03  -5.1505413605405477e-03  -5.1073866302488941e-03  -5.0945025831050468e-03  -5.1120017946493148e-03  -5.1597740735139456e-03  -5.2374391203478168e-03  -5.3441849146991629e-03  -5.4784427817903365e-03  -5.6373707432141344e-03  -5.8161761012732877e-03  -6.0073700128172019e-03  -6.2000604964666363e-03  -6.3793490492421749e-03  -6.5259095719383082e-03  -6.6159085862970250e-03  -6.6216347596172731e-03  -6.5128989012083185e-03  -6.2589907559145019e-03  -5.8314893530320893e-03  -5.2110261448431987e-03  -4.3990726780882101e-03  -3.4360001632510956e-03  -2.4122693496761555e-03  -1.4584376104788766e-03  -7.1416152581141507e-04  -2.6088042086661164e-04  -6.2296287720765820e-05  -3.6021481513581290e-06  -2.7053593954784167e-05  -1.4691357397990550e-04  -4.3703086064322328e-04  -1.0520748546889206e-03  -1.9939371084224571e-03  -3.1430247818730319e-03  -4.3343189904742323e-03  -5.4209279995860084e-03  -6.3129282472242434e-03  -6.9799484847340226e-03  -7.4284248485412844e-03  -7.6819371055479825e-03  -7.7725289706360888e-03  -7.7361486796793701e-03  -7.6083564023657737e-03  -7.4210443189490286e-03  -7.2009618462999378e-03  -6.9695325821885696e-03  -6.7431769670190603e-03  -6.5337983128594341e-03  -6.3494311948944929e-03  -6.1950727025834942e-03  -6.0735907528749432e-03  -5.9865318261920764e-03  -5.9346992076232839e-03  -5.9184831701708631e-03  -5.9380081732231735e-03  -5.9931745727617915e-03  -6.0836227005584545e-03  -6.2085762536391040e-03  -6.3664808586880789e-03  -6.5543819669345946e-03  -6.7670813640141204e-03  -6.9962263321220654e-03  -7.2294835210439719e-03  -7.4498580225881034e-03  -7.6352062011608287e-03  -7.7580697130502918e-03  -7.7865050818673410e-03  -7.6856676219996907e-03  -7.4209889073823610e-03  -6.9595275666096430e-03  -6.2764640993285990e-03  -5.3656853274024700e-03  -4.2642715928514190e-03  -3.0718104212276607e-03  -1.9280494477904205e-03  -9.9358251655736417e-04  -3.9780524161195900e-04  -1.3066058444281714e-04  -1.6363668297533658e-05  -4.4265044728361643e-05  -2.4908363659001040e-04  -6.5044864863566165e-04  -1.4066446660067696e-03  -2.4509250973195756e-03  -3.6402113004651124e-03  -4.8270088845873476e-03  -5.8736662841390001e-03  -6.7061272227245342e-03  -7.3137797650327900e-03  -7.7111199955173654e-03  -7.9204794147602359e-03  -7.9717113748266743e-03  -7.9003987944793342e-03  -7.7423839322435942e-03  -7.5294391129488722e-03  -7.2878890572601667e-03  -7.0387912534647214e-03  -6.7983227401964968e-03  -6.5781094787519308e-03  -6.3857509792620776e-03  -6.2256842723553167e-03  -6.1002308665553118e-03  -6.0105290588898406e-03  -5.9571489374890679e-03  -5.9403815970827866e-03  -5.9603269928594042e-03  -6.0169144544967241e-03  -6.1099030424123920e-03  -6.2387897046671144e-03  -6.4024784489606964e-03  -6.5986006821435288e-03  -6.8225331916205662e-03  -7.0663703987553297e-03  -7.3180854744043277e-03  -7.5609839139839210e-03  -7.7732145337688829e-03  -7.9273693078044175e-03  -7.9912334738147985e-03  -7.9301867607911494e-03  -7.7135960126862623e-03  -7.3088461137532897e-03  -6.6874826577975575e-03  -5.8340353525413256e-03  -4.7646896959814312e-03  -3.5757798072392250e-03  -2.3873750688469314e-03  -1.3312806933968040e-03  -5.7885901217539484e-04  -2.1201119861483152e-04  -3.4297040283727424e-05  -4.1174276991127737e-05  -3.7466950175143543e-04  -1.0709507869148451e-03  -2.1170575994956934e-03  -3.2652014527130482e-03  -4.4339133595077372e-03  -5.5626482797363139e-03  -6.5022248754578200e-03  -7.2110924296895570e-03  -7.7138092057370700e-03  -8.0287191112022871e-03  -8.1693301237699602e-03  -8.1602020467290044e-03  -8.0367990927131885e-03  -7.8354628483318766e-03  -7.5871698564591722e-03  -7.3169622771698710e-03  -7.0449890961802337e-03  -6.7869123933519760e-03  -6.5538434509288873e-03  -6.3525988621324879e-03  -6.1866281811659429e-03  -6.0573242271960304e-03  -5.9651731181950465e-03  -5.9104099119745507e-03  -5.8932067603097689e-03  -5.9136365101046199e-03  -5.9716485641192500e-03  -6.0671396203482077e-03  -6.1999967332887814e-03  -6.3698485352183202e-03  -6.5753044324231968e-03  -6.8127223596979184e-03  -7.0749326651918581e-03  -7.3504772035756071e-03  -7.6233735771595026e-03  -7.8723966454199851e-03  -8.0707084863977790e-03  -8.1858389143197874e-03  -8.1850191051862954e-03  -8.0405680526679200e-03  -7.7249693768353840e-03  -7.2109147704422574e-03  -6.4913972838187266e-03  -5.5123861805198163e-03  -4.3847773452255264e-03  -3.2389534841988804e-03  -2.0506032780652295e-03  -9.5964686664522974e-04  -2.8042541457869554e-04  -4.0996434517068328e-05  -4.5285970652332928e-05  -7.0896428997897971e-04  -2.6700011822540057e-03  -5.0121073850467402e-03  -5.9996859937078957e-03  -6.3999640346628162e-03  -6.9062875720526870e-03  -7.4358519946648056e-03  -7.8887964403902607e-03  -8.2330535865748292e-03  -8.4409959425554796e-03  -8.4920264072731108e-03  -8.4015923611221854e-03  -8.2080204114490154e-03  -7.9494478014354823e-03  -7.6550343590660683e-03  -7.3474428233396543e-03  -7.0455566469925790e-03  -6.7645864684448397e-03  -6.5151280197682376e-03  -6.3029070447600255e-03  -6.1298721161314514e-03  -5.9960223386763718e-03  -5.9009402781210396e-03  -5.8444795278382398e-03  -5.8267367077553377e-03  -5.8477782888134381e-03  -5.9075316126045736e-03  -6.0059845878771018e-03  -6.1434888244900499e-03  -6.3206949077838376e-03  -6.5376854832593333e-03  -6.7922979089155974e-03  -7.0783052633084445e-03  -7.3849508136040491e-03  -7.6968649227104015e-03  -7.9940460870837858e-03  -8.2521902587799813e-03  -8.4361342154859707e-03  -8.5130410954881320e-03  -8.4486270063476344e-03  -8.2933075569715260e-03  -7.9826501216427852e-03  -7.6445260130524970e-03  -7.2027406005681204e-03  -6.8524990438141977e-03  -6.3424052080072327e-03  -4.3700409093087632e-03  -1.8912633609601236e-03  -3.8674786955354289e-04  -2.7528673989565870e-05  -5.9555252152303153e-04  -3.0374205793967232e-03  -1.0715466635157898e-02  -1.9674869799715694e-02  -2.2405384812317519e-02  -1.8557447519563449e-02  -1.3456756235645668e-02  -1.0054073185111336e-02  -8.9588048454417608e-03  -8.9042262387038929e-03  -8.9578112064450169e-03  -8.8956688069910233e-03  -8.6987563002398106e-03  -8.4147585644908911e-03  -8.0852991164485043e-03  -7.7345525166408954e-03  -7.3809309121597149e-03  -7.0418644913672586e-03  -6.7325909084332376e-03  -6.4634385747074589e-03  -6.2386481875191203e-03  -6.0578903132459984e-03  -5.9191095587366469e-03  -5.8207114680716519e-03  -5.7622218897226589e-03  -5.7438160008293423e-03  -5.7656148436065471e-03  -5.8274228001450011e-03  -5.9291513317407873e-03  -6.0716048368370462e-03  -6.2568132989554081e-03  -6.4870539930682774e-03  -6.7624278602352959e-03  -7.0777695133163922e-03  -7.4227492645574491e-03  -7.7822655770706508e-03  -8.1407850430004688e-03  -8.4752575259766563e-03  -8.7430417901874329e-03  -8.9221519014256786e-03  -8.9788335214077038e-03  -9.1770499966665597e-03  -9.5188743955730865e-03  -1.1073386787338537e-02  -1.3784195328282883e-02  -1.7907433091676393e-02  -2.2264700160174414e-02  -2.0275868755792122e-02  -1.1913730809691330e-02  -2.5282572088009127e-03  -9.3192460194775419e-05  -1.8126788391787376e-03  -1.8758154110792912e-02  -3.1513809722454586e-02  -3.1517265165582585e-02  -3.1517920056479187e-02  -3.1515762729746100e-02  -3.1501771501546698e-02  -2.5009645065119428e-02  -1.4396614097341042e-02  -1.0396040127849560e-02  -9.6676273946810047e-03  -9.3993521066911331e-03  -9.0505570886363646e-03  -8.6519397718986778e-03  -8.2396464249556746e-03  -7.8236602868196874e-03  -7.4154595436884399e-03  -7.0314801796017680e-03  -6.6882452992749804e-03  -6.3965366915227119e-03  -6.1584933724683297e-03  -5.9702146040989832e-03  -5.8265990278260167e-03  -5.7246049159913361e-03  -5.6636914587669725e-03  -5.6444643014551057e-03  -5.6672304295908547e-03  -5.7314718703549957e-03  -5.8366264181115898e-03  -5.9837641824425766e-03  -6.1767248957017452e-03  -6.4210414798258090e-03  -6.7204402069729928e-03  -7.0709012600593596e-03  -7.4614292749405455e-03  -7.8780630397024681e-03  -8.3099670620553606e-03  -8.7303483722773276e-03  -9.1324226830820417e-03  -9.4842978680797496e-03  -9.8483777663477701e-03  -1.1607760900680003e-02  -1.5073627472765602e-02  -2.3210642678666495e-02  -3.1497600263892422e-02  -3.1514728104003215e-02  -3.1518040206763950e-02  -3.1518640575140457e-02  -3.1517924768802455e-02  -1.9161389692366370e-02  -1.7579478657518324e-03  -9.4174192228932332e-03  -3.1518409045073900e-02  -3.1519509166228532e-02  -3.1519356135127678e-02  -3.1519133096773025e-02  -3.1518652897547531e-02  -3.1518732915764174e-02  -3.1519196693717770e-02  -3.1486244624495202e-02  -1.9232557141554262e-02  -1.2025033115847151e-02  -1.0163923574354472e-02  -9.4672472917007797e-03  -8.9116370973237619e-03  -8.4093533735706376e-03  -7.9206966479263511e-03  -7.4491326720690183e-03  -7.0113363943002573e-03  -6.6277226111834137e-03  -6.3112364191934235e-03  -6.0607198548763347e-03  -5.8664116259601632e-03  -5.7186424178594123e-03  -5.6127430243561177e-03  -5.5487839931560243e-03  -5.5284815172482651e-03  -5.5525766737941551e-03  -5.6198841398399542e-03  -5.7285489268500281e-03  -5.8793833983325980e-03  -6.0784566313305203e-03  -6.3361898274272603e-03  -6.6626367438348474e-03  -7.0557094567263714e-03  -7.4986388697810824e-03  -7.9824593755027096e-03  -8.4890986262682894e-03  -9.0442489973475235e-03  -9.7033437090595417e-03  -1.0596825688903853e-02  -1.2911811948993565e-02  -1.9211266068586252e-02  -3.1441020317046764e-02  -3.1512942535966058e-02  -3.1517373131088898e-02  -3.1518929315555652e-02  -3.1519217981683868e-02  -3.1519822079754033e-02  -3.1520260709622210e-02  -3.1519128991424797e-02  -7.1382880380081691e-03  -1.5760873633148067e-02  -3.1520353880818086e-02  -3.1520166547467601e-02  -3.1520471853908077e-02  -3.1520457805956359e-02  -3.1520185411489827e-02  -3.1519556559056972e-02  -3.1518980215946887e-02  -3.1517462669211377e-02  -3.1506342074926849e-02  -2.4614160339281065e-02  -1.3785490965992686e-02  -1.0201458780226470e-02  -9.2214565691777529e-03  -8.6003770310908792e-03  -8.0263918123059629e-03  -7.4813624197363621e-03  -6.9781303599655356e-03  -6.5456963978311059e-03  -6.2032828295656497e-03  -5.9435118181278687e-03  -5.7465976926168527e-03  -5.5959919733777914e-03  -5.4855151746728038e-03  -5.4173427301018101e-03  -5.3955033524781199e-03  -5.4215943127105554e-03  -5.4932512552701767e-03  -5.6057365447923762e-03  -5.7584061468416020e-03  -5.9598551216211108e-03  -6.2282225061964938e-03  -6.5838869871015712e-03  -7.0313442458820258e-03  -7.5305807880564710e-03  -8.1036952353321038e-03  -8.6993790198051108e-03  -9.5428774390258278e-03  -1.1202936695305624e-02  -1.4497932524166483e-02  -2.3024503719412892e-02  -3.1506885523801799e-02  -3.1515738647586611e-02  -3.1518081263936182e-02  -3.1519676072279380e-02  -3.1520325093405889e-02  -3.1520463233770751e-02  -3.1520458173946692e-02  -3.1520114950529851e-02  -3.1520092286316755e-02  -1.5759753188446631e-02  -1.8326564899410081e-02  -3.1541428887940218e-02  -3.1521887164436081e-02  -3.1521154918685290e-02  -3.1520737218649397e-02  -3.1520691219568991e-02  -3.1520666702323029e-02  -3.1520156148102330e-02  -3.1518435710336273e-02  -3.1516583355951790e-02  -3.1510786252188054e-02  -3.0470619768505691e-02  -1.5588833520953945e-02  -1.0290911995199811e-02  -8.9288030231841863e-03  -8.1600239645402330e-03  -7.5202782378258545e-03  -6.9307361431802080e-03  -6.4351292657432472e-03  -6.0677800851306439e-03  -5.8058480063043283e-03  -5.6124680627565159e-03  -5.4608432293512307e-03  -5.3440016693989279e-03  -5.2693727860954106e-03  -5.2452550199893174e-03  -5.2744701335937418e-03  -5.3531178740671937e-03  -5.4706172197269637e-03  -5.6222916177644487e-03  -5.8197580923255955e-03  -6.0928253496921334e-03  -6.4762783768012363e-03  -7.0090346419386098e-03  -7.5801362717226473e-03  -8.3032075021667352e-03  -9.1805267491813242e-03  -1.1664163305256168e-02  -1.6355914045763920e-02  -2.7504643622563215e-02  -3.1513806135075144e-02  -3.1518092265797597e-02  -3.1519064499037755e-02  -3.1520150439468438e-02  -3.1520316137901523e-02  -3.1520478887687234e-02  -3.1521021417816777e-02  -3.1521216926958605e-02  -3.1521880708758179e-02  -3.1811953077648003e-02  -1.6625343804940396e-02  -2.8533040738998646e-02  -4.6138695523850429e-02  -3.5625077104736717e-02  -3.1522791235712944e-02  -3.1521322646390439e-02  -3.1520926779432475e-02  -3.1520718364726294e-02  -3.1520751744846622e-02  -3.1520273228230276e-02  -3.1518483485875486e-02  -3.1518247805510949e-02  -3.1518463277288508e-02  -3.1487715520149555e-02  -1.9094574943383191e-02  -1.1372541373555962e-02  -8.7046842348837798e-03  -7.6938347894452645e-03  -6.9127796771679085e-03  -6.3084885335683545e-03  -5.9145067719109396e-03  -5.6580839442400060e-03  -5.4757134503960131e-03  -5.3237977103423447e-03  -5.1955690883003945e-03  -5.1102543215724421e-03  -5.0827134922835325e-03  -5.1165146348194218e-03  -5.2084329781745204e-03  -5.3360162292593752e-03  -5.4855370377729683e-03  -5.6745712578524605e-03  -5.9483626661812321e-03  -6.3663508690087380e-03  -7.0765640047947822e-03  -7.8600835439180811e-03  -9.4172546813239156e-03  -1.2432849993062092e-02  -1.8965220522853727e-02  -3.1436146115220255e-02  -3.1515507051134442e-02  -3.1518203443875119e-02  -3.1520210416115628e-02  -3.1520377747580507e-02  -3.1520375572676541e-02  -3.1520770870043811e-02  -3.1521278288110306e-02  -3.1521552968294189e-02  -3.1523651233980494e-02  -3.7739148841763888e-02  -4.7930723206775369e-02  -2.5075472695566002e-02  -3.5080403461934716e-02  -6.0546880546569495e-02  -4.6019509757867970e-02  -3.5288349947219091e-02  -3.1522730582495349e-02  -3.1521645377938258e-02  -3.1520947346713728e-02  -3.1520668243786729e-02  -3.1520684480683465e-02  -3.1520404218407953e-02  -3.1519315621087757e-02  -3.1519096150075275e-02  -3.1516735028842710e-02  -3.1508901323630815e-02  -2.6601701947572179e-02  -1.5725704330696307e-02  -1.0374872132396660e-02  -7.8687879484023587e-03  -6.6738703756034070e-03  -6.0654314687260289e-03  -5.7173384316771998e-03  -5.4964793609710572e-03  -5.3139502492067581e-03  -5.1518653296655486e-03  -5.0454766036845088e-03  -5.0129198717097324e-03  -5.0555638539679327e-03  -5.1793070429254481e-03  -5.3458407436699626e-03  -5.5356409915973395e-03  -5.7947357998053622e-03  -6.2116207947960607e-03  -6.9518636835094478e-03  -8.7052250601257920e-03  -1.1292535452063046e-02  -1.5548791193692058e-02  -2.5139756879566773e-02  -3.1496700071428900e-02  -3.1515872779790087e-02  -3.1518819882307786e-02  -3.1520503544857900e-02  -3.1520552973924476e-02  -3.1520572691346303e-02  -3.1520770463919566e-02  -3.1521158449858172e-02  -3.1521517324894582e-02  -3.1523602855505338e-02  -3.6357268212389805e-02  -4.6458393458779765e-02  -6.0499447221839010e-02  -3.3666356461322537e-02  -3.4014058414694334e-02  -6.2913802428724783e-02  -5.0483476413117234e-02  -3.9846140070208064e-02  -3.2802304982625256e-02  -3.1522629782762754e-02  -3.1521519859664705e-02  -3.1521003511199200e-02  -3.1520606555114371e-02  -3.1520685466069252e-02  -3.1520740419104638e-02  -3.1519978715542164e-02  -3.1518115415570251e-02  -3.1517722749641396e-02  -3.1517109289575601e-02  -3.1505405234103195e-02  -2.8239094868286407e-02  -1.9378923029968846e-02  -1.4290219859321470e-02  -1.1659713145066395e-02  -1.0088947407730297e-02  -9.1184459199042944e-03  -8.4352537513700948e-03  -7.9643445981197360e-03  -7.7304398009001392e-03  -7.6777351589447070e-03  -7.7861304994945339e-03  -8.1089051089327790e-03  -8.5794628776938199e-03  -9.2011701412567856e-03  -1.0169344156536787e-02  -1.1702982934441053e-02  -1.4204562137729896e-02  -1.8943485827458341e-02  -2.7386603955624100e-02  -3.1493668018750844e-02  -3.1516579787953969e-02  -3.1516805002287041e-02  -3.1517886694864876e-02  -3.1520598017378727e-02  -3.1520650194650279e-02  -3.1520683657302415e-02  -3.1520876196303185e-02  -3.1521071633462454e-02  -3.1521860360804441e-02  -3.1522640264930908e-02  -3.3329004086187400e-02  -3.9793065590221423e-02  -4.9833220623144665e-02  -6.2143436981226291e-02  -3.5179881458549708e-02  -2.5773095571824570e-02  -5.2483096277470283e-02  -4.5938866752819343e-02  -3.9539472264993547e-02  -3.4225579263302358e-02  -3.1525833676878168e-02  -3.1522566233753685e-02  -3.1521461320978106e-02  -3.1521010017480700e-02  -3.1520608731305327e-02  -3.1520734563397178e-02  -3.1520980659421695e-02  -3.1520347177309588e-02  -3.1518658400372400e-02  -3.1518487411926505e-02  -3.1518310426158123e-02  -3.1515525992477540e-02  -3.1514214312564418e-02  -3.1514546437826661e-02  -3.1499910064966920e-02  -3.1471157588144984e-02  -3.1400366635567167e-02  -3.0987426285210760e-02  -2.9818861215761792e-02  -2.9010949800278678e-02  -2.8751944425123306e-02  -2.8963951509332977e-02  -2.9719629438265460e-02  -3.0889762713516324e-02  -3.1384684140191590e-02  -3.1469591189717851e-02  -3.1503688385609782e-02  -3.1505533451330295e-02  -3.1511943571580193e-02  -3.1521088683293084e-02  -3.1518045047206990e-02  -3.1518182830619787e-02  -3.1520010653325221e-02  -3.1520428531939426e-02  -3.1520544220979232e-02  -3.1520688434222538e-02  -3.1520956186483109e-02  -3.1521266542439003e-02  -3.1521616849976695e-02  -3.1522778390564221e-02  -3.1527233212067622e-02  -3.4121110860991059e-02  -3.8784059769627705e-02  -4.4794844491493999e-02  -5.1203809951099750e-02  -2.9053069601339604e-02  -1.6698155535280111e-02  -3.6184230570729656e-02  -3.5935827843468465e-02  -3.4728676472809840e-02  -3.2988151946347528e-02  -3.1531533256510771e-02  -3.1523507201124866e-02  -3.1522066814686889e-02  -3.1521566386625524e-02  -3.1521014590476792e-02  -3.1520654937497061e-02  -3.1520744573245045e-02  -3.1521076818876254e-02  -3.1520969796687712e-02  -3.1520246204686540e-02  -3.1519158134354838e-02  -3.1518219748378269e-02  -3.1518604210625516e-02  -3.1519440326376727e-02  -3.1519383266067978e-02  -3.1518079535849917e-02  -3.1516747343067621e-02  -3.1517774503911807e-02  -3.1519407879698931e-02  -3.1518004823530871e-02  -3.1517308462241621e-02  -3.1517636148673082e-02  -3.1518794094623014e-02  -3.1519730565282837e-02  -3.1517562224694685e-02  -3.1516633891273876e-02  -