<?xml version="1.0"?>
<VTKFile type="UnstructuredGrid"  version="0.1"  >
<UnstructuredGrid>
<Piece  NumberOfPoints="2601" NumberOfCells="5000">
<Points>
<DataArray  type="Float64"  NumberOfComponents="3"  format="ascii">0 0 0  0.03 0 0  0.06 0 0  0.09 0 0  0.12 0 0  0.15 0 0  0.18 0 0  0.21 0 0  0.24 0 0  0.27 0 0  0.3 0 0  0.33 0 0  0.36 0 0  0.39 0 0  0.42 0 0  0.45 0 0  0.48 0 0  0.51 0 0  0.54 0 0  0.57 0 0  0.6 0 0  0.63 0 0  0.66 0 0  0.6899999999999999 0 0  0.72 0 0  0.75 0 0  0.78 0 0  0.8100000000000001 0 0  0.84 0 0  0.87 0 0  0.9 0 0  0.93 0 0  0.96 0 0  0.99 0 0  1.02 0 0  1.05 0 0  1.08 0 0  1.11 0 0  1.14 0 0  1.17 0 0  1.2 0 0  1.23 0 0  1.26 0 0  1.29 0 0  1.32 0 0  1.35 0 0  1.38 0 0  1.41 0 0  1.44 0 0  1.47 0 0  1.5 0 0  0 0.02 0  0.03 0.02 0  0.06 0.02 0  0.09 0.02 0  0.12 0.02 0  0.15 0.02 0  0.18 0.02 0  0.21 0.02 0  0.24 0.02 0  0.27 0.02 0  0.3 0.02 0  0.33 0.02 0  0.36 0.02 0  0.39 0.02 0  0.42 0.02 0  0.45 0.02 0  0.48 0.02 0  0.51 0.02 0  0.54 0.02 0  0.57 0.02 0  0.6 0.02 0  0.63 0.02 0  0.66 0.02 0  0.6899999999999999 0.02 0  0.72 0.02 0  0.75 0.02 0  0.78 0.02 0  0.8100000000000001 0.02 0  0.84 0.02 0  0.87 0.02 0  0.9 0.02 0  0.93 0.02 0  0.96 0.02 0  0.99 0.02 0  1.02 0.02 0  1.05 0.02 0  1.08 0.02 0  1.11 0.02 0  1.14 0.02 0  1.17 0.02 0  1.2 0.02 0  1.23 0.02 0  1.26 0.02 0  1.29 0.02 0  1.32 0.02 0  1.35 0.02 0  1.38 0.02 0  1.41 0.02 0  1.44 0.02 0  1.47 0.02 0  1.5 0.02 0  0 0.04 0  0.03 0.04 0  0.06 0.04 0  0.09 0.04 0  0.12 0.04 0  0.15 0.04 0  0.18 0.04 0  0.21 0.04 0  0.24 0.04 0  0.27 0.04 0  0.3 0.04 0  0.33 0.04 0  0.36 0.04 0  0.39 0.04 0  0.42 0.04 0  0.45 0.04 0  0.48 0.04 0  0.51 0.04 0  0.54 0.04 0  0.57 0.04 0  0.6 0.04 0  0.63 0.04 0  0.66 0.04 0  0.6899999999999999 0.04 0  0.72 0.04 0  0.75 0.04 0  0.78 0.04 0  0.8100000000000001 0.04 0  0.84 0.04 0  0.87 0.04 0  0.9 0.04 0  0.93 0.04 0  0.96 0.04 0  0.99 0.04 0  1.02 0.04 0  1.05 0.04 0  1.08 0.04 0  1.11 0.04 0  1.14 0.04 0  1.17 0.04 0  1.2 0.04 0  1.23 0.04 0  1.26 0.04 0  1.29 0.04 0  1.32 0.04 0  1.35 0.04 0  1.38 0.04 0  1.41 0.04 0  1.44 0.04 0  1.47 0.04 0  1.5 0.04 0  0 0.06 0  0.03 0.06 0  0.06 0.06 0  0.09 0.06 0  0.12 0.06 0  0.15 0.06 0  0.18 0.06 0  0.21 0.06 0  0.24 0.06 0  0.27 0.06 0  0.3 0.06 0  0.33 0.06 0  0.36 0.06 0  0.39 0.06 0  0.42 0.06 0  0.45 0.06 0  0.48 0.06 0  0.51 0.06 0  0.54 0.06 0  0.57 0.06 0  0.6 0.06 0  0.63 0.06 0  0.66 0.06 0  0.6899999999999999 0.06 0  0.72 0.06 0  0.75 0.06 0  0.78 0.06 0  0.8100000000000001 0.06 0  0.84 0.06 0  0.87 0.06 0  0.9 0.06 0  0.93 0.06 0  0.96 0.06 0  0.99 0.06 0  1.02 0.06 0  1.05 0.06 0  1.08 0.06 0  1.11 0.06 0  1.14 0.06 0  1.17 0.06 0  1.2 0.06 0  1.23 0.06 0  1.26 0.06 0  1.29 0.06 0  1.32 0.06 0  1.35 0.06 0  1.38 0.06 0  1.41 0.06 0  1.44 0.06 0  1.47 0.06 0  1.5 0.06 0  0 0.08 0  0.03 0.08 0  0.06 0.08 0  0.09 0.08 0  0.12 0.08 0  0.15 0.08 0  0.18 0.08 0  0.21 0.08 0  0.24 0.08 0  0.27 0.08 0  0.3 0.08 0  0.33 0.08 0  0.36 0.08 0  0.39 0.08 0  0.42 0.08 0  0.45 0.08 0  0.48 0.08 0  0.51 0.08 0  0.54 0.08 0  0.57 0.08 0  0.6 0.08 0  0.63 0.08 0  0.66 0.08 0  0.6899999999999999 0.08 0  0.72 0.08 0  0.75 0.08 0  0.78 0.08 0  0.8100000000000001 0.08 0  0.84 0.08 0  0.87 0.08 0  0.9 0.08 0  0.93 0.08 0  0.96 0.08 0  0.99 0.08 0  1.02 0.08 0  1.05 0.08 0  1.08 0.08 0  1.11 0.08 0  1.14 0.08 0  1.17 0.08 0  1.2 0.08 0  1.23 0.08 0  1.26 0.08 0  1.29 0.08 0  1.32 0.08 0  1.35 0.08 0  1.38 0.08 0  1.41 0.08 0  1.44 0.08 0  1.47 0.08 0  1.5 0.08 0  0 0.1 0  0.03 0.1 0  0.06 0.1 0  0.09 0.1 0  0.12 0.1 0  0.15 0.1 0  0.18 0.1 0  0.21 0.1 0  0.24 0.1 0  0.27 0.1 0  0.3 0.1 0  0.33 0.1 0  0.36 0.1 0  0.39 0.1 0  0.42 0.1 0  0.45 0.1 0  0.48 0.1 0  0.51 0.1 0  0.54 0.1 0  0.57 0.1 0  0.6 0.1 0  0.63 0.1 0  0.66 0.1 0  0.6899999999999999 0.1 0  0.72 0.1 0  0.75 0.1 0  0.78 0.1 0  0.8100000000000001 0.1 0  0.84 0.1 0  0.87 0.1 0  0.9 0.1 0  0.93 0.1 0  0.96 0.1 0  0.99 0.1 0  1.02 0.1 0  1.05 0.1 0  1.08 0.1 0  1.11 0.1 0  1.14 0.1 0  1.17 0.1 0  1.2 0.1 0  1.23 0.1 0  1.26 0.1 0  1.29 0.1 0  1.32 0.1 0  1.35 0.1 0  1.38 0.1 0  1.41 0.1 0  1.44 0.1 0  1.47 0.1 0  1.5 0.1 0  0 0.12 0  0.03 0.12 0  0.06 0.12 0  0.09 0.12 0  0.12 0.12 0  0.15 0.12 0  0.18 0.12 0  0.21 0.12 0  0.24 0.12 0  0.27 0.12 0  0.3 0.12 0  0.33 0.12 0  0.36 0.12 0  0.39 0.12 0  0.42 0.12 0  0.45 0.12 0  0.48 0.12 0  0.51 0.12 0  0.54 0.12 0  0.57 0.12 0  0.6 0.12 0  0.63 0.12 0  0.66 0.12 0  0.6899999999999999 0.12 0  0.72 0.12 0  0.75 0.12 0  0.78 0.12 0  0.8100000000000001 0.12 0  0.84 0.12 0  0.87 0.12 0  0.9 0.12 0  0.93 0.12 0  0.96 0.12 0  0.99 0.12 0  1.02 0.12 0  1.05 0.12 0  1.08 0.12 0  1.11 0.12 0  1.14 0.12 0  1.17 0.12 0  1.2 0.12 0  1.23 0.12 0  1.26 0.12 0  1.29 0.12 0  1.32 0.12 0  1.35 0.12 0  1.38 0.12 0  1.41 0.12 0  1.44 0.12 0  1.47 0.12 0  1.5 0.12 0  0 0.14 0  0.03 0.14 0  0.06 0.14 0  0.09 0.14 0  0.12 0.14 0  0.15 0.14 0  0.18 0.14 0  0.21 0.14 0  0.24 0.14 0  0.27 0.14 0  0.3 0.14 0  0.33 0.14 0  0.36 0.14 0  0.39 0.14 0  0.42 0.14 0  0.45 0.14 0  0.48 0.14 0  0.51 0.14 0  0.54 0.14 0  0.57 0.14 0  0.6 0.14 0  0.63 0.14 0  0.66 0.14 0  0.6899999999999999 0.14 0  0.72 0.14 0  0.75 0.14 0  0.78 0.14 0  0.8100000000000001 0.14 0  0.84 0.14 0  0.87 0.14 0  0.9 0.14 0  0.93 0.14 0  0.96 0.14 0  0.99 0.14 0  1.02 0.14 0  1.05 0.14 0  1.08 0.14 0  1.11 0.14 0  1.14 0.14 0  1.17 0.14 0  1.2 0.14 0  1.23 0.14 0  1.26 0.14 0  1.29 0.14 0  1.32 0.14 0  1.35 0.14 0  1.38 0.14 0  1.41 0.14 0  1.44 0.14 0  1.47 0.14 0  1.5 0.14 0  0 0.16 0  0.03 0.16 0  0.06 0.16 0  0.09 0.16 0  0.12 0.16 0  0.15 0.16 0  0.18 0.16 0  0.21 0.16 0  0.24 0.16 0  0.27 0.16 0  0.3 0.16 0  0.33 0.16 0  0.36 0.16 0  0.39 0.16 0  0.42 0.16 0  0.45 0.16 0  0.48 0.16 0  0.51 0.16 0  0.54 0.16 0  0.57 0.16 0  0.6 0.16 0  0.63 0.16 0  0.66 0.16 0  0.6899999999999999 0.16 0  0.72 0.16 0  0.75 0.16 0  0.78 0.16 0  0.8100000000000001 0.16 0  0.84 0.16 0  0.87 0.16 0  0.9 0.16 0  0.93 0.16 0  0.96 0.16 0  0.99 0.16 0  1.02 0.16 0  1.05 0.16 0  1.08 0.16 0  1.11 0.16 0  1.14 0.16 0  1.17 0.16 0  1.2 0.16 0  1.23 0.16 0  1.26 0.16 0  1.29 0.16 0  1.32 0.16 0  1.35 0.16 0  1.38 0.16 0  1.41 0.16 0  1.44 0.16 0  1.47 0.16 0  1.5 0.16 0  0 0.18 0  0.03 0.18 0  0.06 0.18 0  0.09 0.18 0  0.12 0.18 0  0.15 0.18 0  0.18 0.18 0  0.21 0.18 0  0.24 0.18 0  0.27 0.18 0  0.3 0.18 0  0.33 0.18 0  0.36 0.18 0  0.39 0.18 0  0.42 0.18 0  0.45 0.18 0  0.48 0.18 0  0.51 0.18 0  0.54 0.18 0  0.57 0.18 0  0.6 0.18 0  0.63 0.18 0  0.66 0.18 0  0.6899999999999999 0.18 0  0.72 0.18 0  0.75 0.18 0  0.78 0.18 0  0.8100000000000001 0.18 0  0.84 0.18 0  0.87 0.18 0  0.9 0.18 0  0.93 0.18 0  0.96 0.18 0  0.99 0.18 0  1.02 0.18 0  1.05 0.18 0  1.08 0.18 0  1.11 0.18 0  1.14 0.18 0  1.17 0.18 0  1.2 0.18 0  1.23 0.18 0  1.26 0.18 0  1.29 0.18 0  1.32 0.18 0  1.35 0.18 0  1.38 0.18 0  1.41 0.18 0  1.44 0.18 0  1.47 0.18 0  1.5 0.18 0  0 0.2 0  0.03 0.2 0  0.06 0.2 0  0.09 0.2 0  0.12 0.2 0  0.15 0.2 0  0.18 0.2 0  0.21 0.2 0  0.24 0.2 0  0.27 0.2 0  0.3 0.2 0  0.33 0.2 0  0.36 0.2 0  0.39 0.2 0  0.42 0.2 0  0.45 0.2 0  0.48 0.2 0  0.51 0.2 0  0.54 0.2 0  0.57 0.2 0  0.6 0.2 0  0.63 0.2 0  0.66 0.2 0  0.6899999999999999 0.2 0  0.72 0.2 0  0.75 0.2 0  0.78 0.2 0  0.8100000000000001 0.2 0  0.84 0.2 0  0.87 0.2 0  0.9 0.2 0  0.93 0.2 0  0.96 0.2 0  0.99 0.2 0  1.02 0.2 0  1.05 0.2 0  1.08 0.2 0  1.11 0.2 0  1.14 0.2 0  1.17 0.2 0  1.2 0.2 0  1.23 0.2 0  1.26 0.2 0  1.29 0.2 0  1.32 0.2 0  1.35 0.2 0  1.38 0.2 0  1.41 0.2 0  1.44 0.2 0  1.47 0.2 0  1.5 0.2 0  0 0.22 0  0.03 0.22 0  0.06 0.22 0  0.09 0.22 0  0.12 0.22 0  0.15 0.22 0  0.18 0.22 0  0.21 0.22 0  0.24 0.22 0  0.27 0.22 0  0.3 0.22 0  0.33 0.22 0  0.36 0.22 0  0.39 0.22 0  0.42 0.22 0  0.45 0.22 0  0.48 0.22 0  0.51 0.22 0  0.54 0.22 0  0.57 0.22 0  0.6 0.22 0  0.63 0.22 0  0.66 0.22 0  0.6899999999999999 0.22 0  0.72 0.22 0  0.75 0.22 0  0.78 0.22 0  0.8100000000000001 0.22 0  0.84 0.22 0  0.87 0.22 0  0.9 0.22 0  0.93 0.22 0  0.96 0.22 0  0.99 0.22 0  1.02 0.22 0  1.05 0.22 0  1.08 0.22 0  1.11 0.22 0  1.14 0.22 0  1.17 0.22 0  1.2 0.22 0  1.23 0.22 0  1.26 0.22 0  1.29 0.22 0  1.32 0.22 0  1.35 0.22 0  1.38 0.22 0  1.41 0.22 0  1.44 0.22 0  1.47 0.22 0  1.5 0.22 0  0 0.24 0  0.03 0.24 0  0.06 0.24 0  0.09 0.24 0  0.12 0.24 0  0.15 0.24 0  0.18 0.24 0  0.21 0.24 0  0.24 0.24 0  0.27 0.24 0  0.3 0.24 0  0.33 0.24 0  0.36 0.24 0  0.39 0.24 0  0.42 0.24 0  0.45 0.24 0  0.48 0.24 0  0.51 0.24 0  0.54 0.24 0  0.57 0.24 0  0.6 0.24 0  0.63 0.24 0  0.66 0.24 0  0.6899999999999999 0.24 0  0.72 0.24 0  0.75 0.24 0  0.78 0.24 0  0.8100000000000001 0.24 0  0.84 0.24 0  0.87 0.24 0  0.9 0.24 0  0.93 0.24 0  0.96 0.24 0  0.99 0.24 0  1.02 0.24 0  1.05 0.24 0  1.08 0.24 0  1.11 0.24 0  1.14 0.24 0  1.17 0.24 0  1.2 0.24 0  1.23 0.24 0  1.26 0.24 0  1.29 0.24 0  1.32 0.24 0  1.35 0.24 0  1.38 0.24 0  1.41 0.24 0  1.44 0.24 0  1.47 0.24 0  1.5 0.24 0  0 0.26 0  0.03 0.26 0  0.06 0.26 0  0.09 0.26 0  0.12 0.26 0  0.15 0.26 0  0.18 0.26 0  0.21 0.26 0  0.24 0.26 0  0.27 0.26 0  0.3 0.26 0  0.33 0.26 0  0.36 0.26 0  0.39 0.26 0  0.42 0.26 0  0.45 0.26 0  0.48 0.26 0  0.51 0.26 0  0.54 0.26 0  0.57 0.26 0  0.6 0.26 0  0.63 0.26 0  0.66 0.26 0  0.6899999999999999 0.26 0  0.72 0.26 0  0.75 0.26 0  0.78 0.26 0  0.8100000000000001 0.26 0  0.84 0.26 0  0.87 0.26 0  0.9 0.26 0  0.93 0.26 0  0.96 0.26 0  0.99 0.26 0  1.02 0.26 0  1.05 0.26 0  1.08 0.26 0  1.11 0.26 0  1.14 0.26 0  1.17 0.26 0  1.2 0.26 0  1.23 0.26 0  1.26 0.26 0  1.29 0.26 0  1.32 0.26 0  1.35 0.26 0  1.38 0.26 0  1.41 0.26 0  1.44 0.26 0  1.47 0.26 0  1.5 0.26 0  0 0.28 0  0.03 0.28 0  0.06 0.28 0  0.09 0.28 0  0.12 0.28 0  0.15 0.28 0  0.18 0.28 0  0.21 0.28 0  0.24 0.28 0  0.27 0.28 0  0.3 0.28 0  0.33 0.28 0  0.36 0.28 0  0.39 0.28 0  0.42 0.28 0  0.45 0.28 0  0.48 0.28 0  0.51 0.28 0  0.54 0.28 0  0.57 0.28 0  0.6 0.28 0  0.63 0.28 0  0.66 0.28 0  0.6899999999999999 0.28 0  0.72 0.28 0  0.75 0.28 0  0.78 0.28 0  0.8100000000000001 0.28 0  0.84 0.28 0  0.87 0.28 0  0.9 0.28 0  0.93 0.28 0  0.96 0.28 0  0.99 0.28 0  1.02 0.28
[...]
<PointData  Scalars="sensitivity"> 
<DataArray  type="Float64"  Name="sensitivity"  format="ascii">-1.4191189769899766e-07  -3.8690144971212427e-06  -1.9952618362416926e-05  -5.7837273336979023e-05  -1.1989054218497905e-04  -1.9847598530627262e-04  -2.8146887997005597e-04  -3.5836215825046203e-04  -4.2277864648502915e-04  -4.7292846798119363e-04  -5.1070643357858426e-04  -5.3958178773809201e-04  -5.6255471957398107e-04  -5.8124057819973637e-04  -5.9598559202773710e-04  -6.0657896381811308e-04  -6.1315163997470033e-04  -6.1654253617507372e-04  -6.1779816974483041e-04  -6.1759590918616567e-04  -6.1635704029119670e-04  -6.1463394016443812e-04  -6.1304741520411331e-04  -6.1191538881552392e-04  -6.1117323375524727e-04  -6.1070179320276677e-04  -6.1064247678338231e-04  -6.1132982388837720e-04  -6.1292444877969769e-04  -6.1515549238248205e-04  -6.1741273761274033e-04  -6.1895898011656806e-04  -6.1895401391616890e-04  -6.1644427070291544e-04  -6.1062830222516102e-04  -6.0122672326835293e-04  -5.8853390104107641e-04  -5.7302622672775357e-04  -5.5459383524142521e-04  -5.3157853843427644e-04  -5.0034236483090971e-04  -4.5634949560396297e-04  -3.9661575693787274e-04  -3.2184743119747573e-04  -2.3715651750245661e-04  -1.5214601754365411e-04  -7.9839353398654381e-05  -3.1278101093847534e-05  -7.8314541944009413e-06  -6.5851698387707086e-07  -1.2727684023781315e-09  -2.1064882556839532e-06  -4.7592862053080884e-05  -2.3649789789384758e-04  -6.9457777324765605e-04  -1.4568976419733603e-03  -2.4209245240733078e-03  -3.4265680813843954e-03  -4.3408342229870967e-03  -5.0863258452334935e-03  -5.6440056781425548e-03  -6.0435557132846899e-03  -6.3370217324665882e-03  -6.5699412505717623e-03  -6.7670766340836219e-03  -6.9330064260315549e-03  -7.0612126469763005e-03  -7.1471680171269732e-03  -7.1964866577733065e-03  -7.2203632317067393e-03  -7.2265141665304872e-03  -7.2187858243666176e-03  -7.2027844098738955e-03  -7.1863633907284057e-03  -7.1744445796229264e-03  -7.1665880389379360e-03  -7.1606754739036499e-03  -7.1577521344528047e-03  -7.1622112044411523e-03  -7.1771836818159190e-03  -7.2003672778934826e-03  -7.2246311714976013e-03  -7.2412720576477537e-03  -7.2409434480048456e-03  -7.2131512803331075e-03  -7.1491947023745997e-03  -7.0474202037507788e-03  -6.9147395476617758e-03  -6.7621104621820687e-03  -6.5948408524896416e-03  -6.3988429143871902e-03  -6.1303107241661098e-03  -5.7235053103490523e-03  -5.1212761863796046e-03  -4.3077357775850667e-03  -3.3210229448263676e-03  -2.2582614225481559e-03  -1.2785163463295290e-03  -5.5626539197520329e-04  -1.6693848371674517e-04  -2.5532386314050274e-05  -4.3677354527023766e-07  -7.5794634477228885e-06  -1.3179580348611847e-04  -5.6335041164006460e-04  -1.5557836397720188e-03  -3.1352670400560763e-03  -5.0248557849717924e-03  -6.8876719094925236e-03  -8.4927425053307280e-03  -9.7278982213904724e-03  -1.0584845956489692e-02  -1.1143283302514663e-02  -1.1520978535790512e-02  -1.1815210985373564e-02  -1.2076308480985402e-02  -1.2311198243790343e-02  -1.2501358699593413e-02  -1.2630241118838566e-02  -1.2703674350403956e-02  -1.2741052592005088e-02  -1.2753307614819877e-02  -1.2741843811831325e-02  -1.2713807415187484e-02  -1.2684563836365886e-02  -1.2664728286499866e-02  -1.2652856671546576e-02  -1.2642975074590805e-02  -1.2636011944058145e-02  -1.2641460579137330e-02  -1.2667618227556363e-02  -1.2711498233601451e-02  -1.2759687376438426e-02  -1.2796706960640995e-02  -1.2807580137046064e-02  -1.2774791954755846e-02  -1.2683120198534870e-02  -1.2531552016295787e-02  -1.2337230157143247e-02  -1.2127132149279660e-02  -1.1921463569815379e-02  -1.1707097041518949e-02  -1.1409504479889363e-02  -1.0895064977031386e-02  -1.0026032374139170e-02  -8.7316009277437680e-03  -7.0341150205474184e-03  -5.0557124840900011e-03  -3.0605074451793210e-03  -1.4417328681257241e-03  -4.8449533920128028e-04  -9.8076941106723409e-05  -3.5605800890438788e-06  -1.5983532650151805e-05  -2.8825732212802108e-04  -1.1383103576223497e-03  -2.8484034434780692e-03  -5.2202691288410997e-03  -7.7051869917953405e-03  -9.8976017235955435e-03  -1.1623997359548973e-02  -1.2833880506631784e-02  -1.3568084508625133e-02  -1.3958745790438943e-02  -1.4169344489474189e-02  -1.4322354100991910e-02  -1.4475599756553700e-02  -1.4632235931303627e-02  -1.4761166894492559e-02  -1.4834610667041616e-02  -1.4861059234155490e-02  -1.4867989970614287e-02  -1.4862227600684339e-02  -1.4833190483672928e-02  -1.4785112719178645e-02  -1.4740304083416164e-02  -1.4713722700875200e-02  -1.4700340653743732e-02  -1.4688384396991867e-02  -1.4677997809228214e-02  -1.4684056423974601e-02  -1.4720794824032392e-02  -1.4785322850911692e-02  -1.4859556607524749e-02  -1.4926108853013650e-02  -1.4972241188030600e-02  -1.4979901176701334e-02  -1.4930205176470698e-02  -1.4823262762961449e-02  -1.4683710017863222e-02  -1.4548372410557762e-02  -1.4450379434769499e-02  -1.4390066618468533e-02  -1.4289179772954403e-02  -1.3976262796645687e-02  -1.3255594197045733e-02  -1.2008532665991521e-02  -1.0208236862374084e-02  -7.8843002739859488e-03  -5.2105853299274666e-03  -2.6913728754691247e-03  -9.7762287869190964e-04  -2.1515230063033828e-04  -9.7855481071483763e-06  -2.4931229532480295e-05  -6.0955492959397124e-04  -2.4803497682652498e-03  -5.5739318852113702e-03  -8.9610118235452039e-03  -1.1805361230788736e-02  -1.3910646196135188e-02  -1.5366012545026691e-02  -1.6227712788146213e-02  -1.6575441720200791e-02  -1.6592492460709023e-02  -1.6477778998790785e-02  -1.6357294409440008e-02  -1.6284606446230011e-02  -1.6261796116635301e-02  -1.6247476821342768e-02  -1.6198870912750751e-02  -1.6127151775951275e-02  -1.6072045207776900e-02  -1.6031746866021403e-02  -1.5972773033528356e-02  -1.5893320483411074e-02  -1.5826595219708545e-02  -1.5792875620121063e-02  -1.5779769595038327e-02  -1.5765798127537121e-02  -1.5749575208677973e-02  -1.5753950345452780e-02  -1.5802550706500062e-02  -1.5893258359701859e-02  -1.6001407344948784e-02  -1.6109575227354529e-02  -1.6215009547368455e-02  -1.6304110854205228e-02  -1.6352785450571651e-02  -1.6361516394418876e-02  -1.6363555911829645e-02  -1.6402924460444598e-02  -1.6524087925801324e-02  -1.6749201700604757e-02  -1.7009455819518803e-02  -1.7102081699768640e-02  -1.6773843927012842e-02  -1.5881860809821978e-02  -1.4385570911665552e-02  -1.2173165808836461e-02  -9.1266816756789514e-03  -5.4565323749948651e-03  -2.1563886753191773e-03  -4.2982743485548320e-04  -1.6667945173905767e-05  -4.1863107273228754e-05  -1.4595847652455719e-03  -5.6132853184993406e-03  -1.0559766494243793e-02  -1.4727851118881705e-02  -1.7603836115346980e-02  -1.9331739024239663e-02  -2.0249648149764984e-02  -2.0507141397962728e-02  -2.0250056409947592e-02  -1.9742360948271385e-02  -1.9195686457547212e-02  -1.8696172483759505e-02  -1.8271979229728237e-02  -1.7931106902768910e-02  -1.7637926631914328e-02  -1.7351236917170307e-02  -1.7091378334562819e-02  -1.6914693923045648e-02  -1.6808243110146299e-02  -1.6700708967710993e-02  -1.6577125131958803e-02  -1.6484817116694427e-02  -1.6448575739384914e-02  -1.6442168917464826e-02  -1.6429014428012936e-02  -1.6405536000030811e-02  -1.6406981624518084e-02  -1.6473237750856511e-02  -1.6605981393213457e-02  -1.6770077222396550e-02  -1.6947058205580675e-02  -1.7155004340405081e-02  -1.7394295274374014e-02  -1.7630213328809416e-02  -1.7852765537175505e-02  -1.8096150170362181e-02  -1.8404227956512816e-02  -1.8839959650676044e-02  -1.9482764976312544e-02  -2.0294815784201760e-02  -2.1000129074154907e-02  -2.1218997653311453e-02  -2.0786339903054035e-02  -1.9753799532872478e-02  -1.7980178310704236e-02  -1.5161416163879912e-02  -1.0952789427208960e-02  -5.2876489639832229e-03  -9.6876859351911477e-04  -2.2446282855416232e-05  -1.3162031295013425e-04  -3.7707268096426080e-03  -1.1495299834748104e-02  -1.6360541059410576e-02  -1.9462451446013506e-02  -2.2073905832095779e-02  -2.4050253863110663e-02  -2.5256469072198147e-02  -2.5339716563204242e-02  -2.4423580210885015e-02  -2.3272724858485309e-02  -2.2374161896152611e-02  -2.1660214091619844e-02  -2.0977482725739346e-02  -2.0321406031465587e-02  -1.9634324581989292e-02  -1.8909359778346121e-02  -1.8275793619787983e-02  -1.7834209077952651e-02  -1.7548799489854466e-02  -1.7308164557191492e-02  -1.7086702088544320e-02  -1.6944436920859566e-02  -1.6902691735772309e-02  -1.6909201883722708e-02  -1.6903872370547000e-02  -1.6878114749051126e-02  -1.6883038508653102e-02  -1.6984452672770583e-02  -1.7195783369988341e-02  -1.7470059669607678e-02  -1.7783706852937071e-02  -1.8178379929788005e-02  -1.8666240676242844e-02  -1.9187523637542458e-02  -1.9704694818416219e-02  -2.0229202332219354e-02  -2.0791103867693814e-02  -2.1493574022124158e-02  -2.2503982031105794e-02  -2.3816133247932275e-02  -2.5064100726548973e-02  -2.5700986084861901e-02  -2.5492703213595719e-02  -2.4689090231025904e-02  -2.3280762391972395e-02  -2.0828537334223820e-02  -1.7164113224600409e-02  -1.1797738005166945e-02  -3.1191633500835866e-03  -4.1321269997184318e-05  -5.6540735068583766e-04  -9.5300499761387797e-03  -1.8843261600903813e-02  -2.2087999453402025e-02  -2.3014392526199495e-02  -2.3757061800600349e-02  -2.4619401585006230e-02  -2.6062697140606734e-02  -2.7340886137566134e-02  -2.7398569635265133e-02  -2.6220842690690138e-02  -2.4909808096507158e-02  -2.4121782098336843e-02  -2.3614390026706827e-02  -2.3184735573769572e-02  -2.2475704390781708e-02  -2.1246595508541306e-02  -2.0154647653298653e-02  -1.9465707712320996e-02  -1.8893443582042729e-02  -1.8320861858079539e-02  -1.7841011966556446e-02  -1.7556814607900515e-02  -1.7461534054984917e-02  -1.7458972722208470e-02  -1.7457829750060948e-02  -1.7439228450960659e-02  -1.7466667774888676e-02  -1.7634712074852846e-02  -1.7970657108547547e-02  -1.8402813101302609e-02  -1.8912713269532838e-02  -1.9607350896059729e-02  -2.0456207327450338e-02  -2.1243403127127213e-02  -2.1924101768425013e-02  -2.2600329462864770e-02  -2.3298364938071917e-02  -2.4147868712586375e-02  -2.5339240075165418e-02  -2.6630833150485526e-02  -2.7450479029921003e-02  -2.7526190960293642e-02  -2.7103828124992242e-02  -2.6580869829210284e-02  -2.5786109801243465e-02  -2.4056540008196667e-02  -2.1385147636309568e-02  -1.7262947779265934e-02  -8.3357548652360017e-03  -1.7121068675447334e-04  -3.7844471974300144e-03  -1.8045228093838177e-02  -2.7010808394143215e-02  -2.9789482892317497e-02  -3.0726608128301771e-02  -3.0009529211330651e-02  -2.8268412698454527e-02  -2.7406743296156416e-02  -2.7596095244496802e-02  -2.8010775231204956e-02  -2.8009533208512693e-02  -2.7132932832104495e-02  -2.5978544977925185e-02  -2.5082425022997401e-02  -2.4744538694571078e-02  -2.4557798218775840e-02  -2.3739970698377234e-02  -2.2205261948266310e-02  -2.1363768192247817e-02  -2.1024336811456878e-02  -2.0133354630778640e-02  -1.9205938592033078e-02  -1.8674417772625566e-02  -1.8465398925835149e-02  -1.8395752028117222e-02  -1.8352921046713454e-02  -1.8317814813133375e-02  -1.8377749792291599e-02  -1.8668661614883168e-02  -1.9214062957817944e-02  -1.9848271165140402e-02  -2.0466688081488937e-02  -2.1327522147333997e-02  -2.2547017940286507e-02  -2.3577513694075677e-02  -2.4170204210550914e-02  -2.4846287624808040e-02  -2.5793674965020007e-02  -2.6811834845680060e-02  -2.7794659199476553e-02  -2.8508814060951692e-02  -2.8686434067871972e-02  -2.8825537886338452e-02  -2.9167743631990012e-02  -2.9653230134637661e-02  -2.9817481730250676e-02  -2.8728183644311043e-02  -2.6581399394523520e-02  -2.4470528816083838e-02  -1.7445034666339700e-02  -1.9842361215559059e-03  -1.4865803043876124e-02  -2.9499539314482206e-02  -3.2235012696545315e-02  -3.3237365043255640e-02  -3.4873548899265999e-02  -3.6287323310829692e-02  -3.5318226804842326e-02  -3.2992645529798102e-02  -3.1071379776170343e-02  -3.0288995930018017e-02  -3.0247407249231036e-02  -2.9667013218124885e-02  -2.8365932231197412e-02  -2.7084525065068591e-02  -2.6227441848713930e-02  -2.5869248452491615e-02  -2.5433504296638255e-02  -2.7315611820176909e-02  -2.3250441995791484e-02  -2.2675255257461439e-02  -2.2083519537103632e-02  -2.0924459605672071e-02  -2.0205444503800067e-02  -1.9983196186528437e-02  -1.9892358605797685e-02  -1.9786945744425393e-02  -1.9680758209377112e-02  -1.9696347346775132e-02  -2.0064609370046046e-02  -2.0871306728877832e-02  -2.1831255482234507e-02  -2.2553714665471583e-02  -2.3255372943720952e-02  -2.4348988402068304e-02  -2.5625122238790741e-02  -2.6504411625549222e-02  -2.7209519069178918e-02  -2.8156027399129129e-02  -2.9085223315498010e-02  -2.9853427723085350e-02  -3.0637528014879959e-02  -3.1356376765337000e-02  -3.2198982625746060e-02  -3.3585385750027424e-02  -3.4955739372887901e-02  -3.5136200733403247e-02  -3.3659088739716271e-02  -3.1390952574106866e-02  -2.9924917247074891e-02  -3.0969581937091033e-02  -1.2722245714879605e-02  -2.4727156414765607e-02  -4.0653454050794485e-02  -3.7776634778233245e-02  -3.6273332380574196e-02  -3.6160385819047264e-02  -3.6945362385818567e-02  -3.7469734251336449e-02  -3.6667793718024040e-02  -3.4709600167428717e-02  -3.2919319955228371e-02  -3.2291038390696594e-02  -3.1958954827293808e-02  -3.1147161623470254e-02  -2.9995005065582489e-02  -2.8617236372893391e-02  -2.7238070847870392e-02  -2.6412813816499126e-02  -2.5868361536131430e-02  -2.5019502802857661e-02  -2.4582362001809768e-02  -2.4066589635249061e-02  -2.3123348196972364e-02  -2.2260468358851704e-02  -2.1953788857293152e-02  -2.1919757655145661e-02  -2.1841695030839020e-02  -2.1725410599791974e-02  -2.1687689632633306e-02  -2.1971208070792100e-02  -2.2751599823041407e-02  -2.3909296524120612e-02  -2.4966229600080960e-02  -2.5637097876342246e-02  -2.6369320758908670e-02  -2.7431124122961819e-02  -2.8408032013693362e-02  -2.9203737381679917e-02  -3.0087379580741022e-02  -3.0969774715054757e-02  -3.1754497429786657e-02  -3.2548340122413276e-02  -3.3725735229837454e-02  -3.5436015711902476e-02  -3.7085322929934376e-02  -3.7822616016114127e-02  -3.7276056635800268e-02  -3.6061567473996782e-02  -3.5566359425806639e-02  -3.6804959410994112e-02  -4.1079467995312181e-02  -2.3582194700385119e-02  -3.2783184147987365e-02  -5.2082604294624184e-02  -4.3502397950188357e-02  -4.0842949707439020e-02  -3.9499371544202348e-02  -3.8724102644939778e-02  -3.8238436445623969e-02  -3.7673706406489961e-02  -3.6611452059647810e-02  -3.5088316136222424e-02  -3.3989985824119308e-02  -3.3614914865846016e-02  -3.3140458551415411e-02  -3.2307689777009568e-02  -3.1338115799930427e-02  -3.0010284491303944e-02  -2.8257738406597482e-02  -2.7000604989056168e-02  -2.6512315011315742e-02  -2.6136456467110773e-02  -2.5487935752390140e-02  -2.4717931296959782e-02  -2.4101294420791688e-02  -2.3939597729077035e-02  -2.4039037292563854e-02  -2.4071667192141745e-02  -2.4010910016871459e-02  -2.3938879025855168e-02  -2.4027173840400658e-02  -2.4539878754384761e-02  -2.5517999208753243e-02  -2.6645025445358170e-02  -2.7561901571011838e-02  -2.8281911858363516e-02  -2.9100661081622715e-02  -3.0011941274461142e-02  -3.0837812300253717e-02  -3.1701663437084283e-02  -3.2675985499492750e-02  -3.3601433448919263e-02  -3.4676720037912785e-02  -3.6265769652635810e-02  -3.8043631889094737e-02  -3.9153776372576790e-02  -3.9235440639649087e-02  -3.8833875220913805e-02  -3.8764964871889795e-02  -3.9990413933373381e-02  -4.4125179108292494e-02  -5.3372088397157055e-02  -3.1021418262638344e-02  -3.7900515768626471e-02  -6.1992259804837767e-02  -4.8027921742383468e-02  -4.2418240980497346e-02  -4.1690611629464441e-02  -4.1372311876726818e-02  -4.0688002242467235e-02  -3.9590883869474645e-02  -3.8377800848251153e-02  -3.7226534205664796e-02  -3.6063795945959244e-02  -3.5118960120374201e-02  -3.4505871714109959e-02  -3.3871324493940480e-02  -3.3056460348713179e-02  -3.2101738037187043e-02  -3.0773227307950721e-02  -2.9234830293698652e-02  -2.8315015966927114e-02  -2.7825093178699259e-02  -2.6952786049608397e-02  -2.6104886245603733e-02  -2.5671192117840975e-02  -2.5519944277629335e-02  -2.5526612404001420e-02  -2.5575034676221298e-02  -2.5639266675316793e-02  -2.5742770361158018e-02  -2.5935571600072749e-02  -2.6336617323145069e-02  -2.7034707427924565e-02  -2.7961177989536550e-02  -2.8935898168095643e-02  -2.9803377497551325e-02  -3.0567167185837237e-02  -3.1350305320857544e-02  -3.2233887893542125e-02  -3.3217923840779720e-02  -3.4293172059877537e-02  -3.5521699997157978e-02  -3.6999502524316170e-02  -3.8646590335916879e-02  -4.0094785190283602e-02  -4.0888228504207716e-02  -4.0961002886218345e-02  -4.0735051344326818e-02  -4.0895893725413419e-02  -4.2751689829702628e-02  -4.9284931471447135e-02  -6.2749629391658693e-02  -3.6952914056810379e-02  -3.6884767692954061e-02  -6.3004949778805469e-02  -4.9236447114814876e-02  -4.2223937345968868e-02  -4.1128702285656023e-02  -4.2172909878960448e-02  -4.2484495584546221e-02  -4.1888903956594017e-02  -4.0588671535655506e-02  -3.9186448771289566e-02  -3.8078877146408216e-02  -3.7055340548333489e-02  -3.6029438598231010e-02  -3.5098132789226508e-02  -3.4229234422468745e-02  -3.3318562423838828e-02  -3.2254135370770307e-02  -3.1059691077086476e-02  -3.0126733970408569e-02  -2.9641336663723036e-02  -2.9061256133736293e-02  -2.8248810305511799e-02  -2.7724372225039637e-02  -2.7536136095436922e-02  -2.7453431910433292e-02  -2.7416485453310224e-02  -2.7458902173642757e-02  -2.7586364657093746e-02  -2.7800592816249976e-02  -2.8138526272276927e-02  -2.8628214411343989e-02  -2.9250986525614652e-02  -2.9987733378459669e-02  -3.0828165393527399e-02  -3.1726521356366562e-02  -3.2666901708751223e-02  -3.3718304228855807e-02  -3.4938316654762262e-02  -3.6294153672884251e-02  -3.7708242614081934e-02  -3.9142927942339596e-02  -4.0556202228846316e-02  -4.1731634527816017e-02  -4.2330645835541192e-02  -4.2286866627050786e-02  -4.1765504496068022e-02  -4.1228598678257039e-02  -4.2575599585070970e-02  -4.9091861264829340e-02  -6.2698493799859006e-02  -3.7965922248207683e-02  -3.0709531933497933e-02  -5.3988052022882621e-02  -4.5220327926575175e-02  -4.0813447658117077e-02  -4.0113555293690310e-02  -4.1472245766269469e-02  -4.2738807599376823e-02  -4.2933414020145645e-02  -4.2260171894814284e-02  -4.1018382288000602e-02  -3.9771601322995481e-02  -3.8796386194322768e-02  -3.7863893434590332e-02  -3.6779313979332373e-02  -3.5594807696612572e-02  -3.4431899403823484e-02  -3.3304345884426226e-02  -3.2203409218251766e-02  -3.1282792677229325e-02  -3.0681521787421211e-02  -3.0204566583284440e-02  -2.9632683349692560e-02  -2.9142454668881924e-02  -2.8911228265872706e-02  -2.8829551691149931e-02  -2.8777246196663404e-02  -2.8761882243854855e-02  -2.8831724897315864e-02  -2.9024386093013024e-02  -2.9363475972446582e-02  -2.9842632723466267e-02  -3.0431174393569307e-02  -3.1116672709382863e-02  -3.1931796398557678e-02  -3.2935932518319097e-02  -3.4166455644073709e-02  -3.5586249567791856e-02  -3.7072907817699931e-02  -3.8472415620306830e-02  -3.9706439462314863e-02  -4.0807364976809465e-02  -4.1808822578826940e-02  -4.2619692329463429e-02  -4.3039336239971610e-02  -4.2864834783856810e-02  -4.1952546597736368e-02  -4.0662270655952078e-02  -4.0512193182298373e-02  -4.3826109452160450e-02  -5.2893933917924289e-02  -3.2843568749135674e-02  -2.2981290566720852e-02  -4.1497523522023828e-02  -3.8809479139616271e-02  -3.8665340725317035e-02  -3.9494567579758867e-02  -4.0913462807354924e-02  -4.2213446952835888e-02  -4.2859242366087347e-02  -4.2789468889897313e-02  -4.2174370596168131e-02  -4.1225859588327661e-02  -4.0237606768480018e-02  -3.9332264590048800e-02  -3.8363212779453100e-02  -3.7183843252759266e-02  -3.5850107439383772e-02  -3.4526814029919216e-02  -3.3338763439829777e-02  -3.2380986037510565e-02  -3.1716340316570092e-02  -3.1266640026533565e-02  -3.0875622499404436e-02  -3.0520883532877303e-02  -3.0279964504311651e-02  -3.0162210791066416e-02  -3.0121805662339393e-02  -3.0143984519619943e-02  -3.0246233323093532e-02  -3.0444496109936756e-02  -3.0745918901342158e-02  -3.1157259327522887e-02  -