<?xml version="1.0"?>
<VTKFile type="UnstructuredGrid"  version="0.1"  >
<UnstructuredGrid>
<Piece  NumberOfPoints="2601" NumberOfCells="5000">
<Points>
<DataArray  type="Float64"  NumberOfComponents="3"  format="ascii">0 0 0  0.03 0 0  0.06 0 0  0.09 0 0  0.12 0 0  0.15 0 0  0.18 0 0  0.21 0 0  0.24 0 0  0.27 0 0  0.3 0 0  0.33 0 0  0.36 0 0  0.39 0 0  0.42 0 0  0.45 0 0  0.48 0 0  0.51 0 0  0.54 0 0  0.57 0 0  0.6 0 0  0.63 0 0  0.66 0 0  0.6899999999999999 0 0  0.72 0 0  0.75 0 0  0.78 0 0  0.8100000000000001 0 0  0.84 0 0  0.87 0 0  0.9 0 0  0.93 0 0  0.96 0 0  0.99 0 0  1.02 0 0  1.05 0 0  1.08 0 0  1.11 0 0  1.14 0 0  1.17 0 0  1.2 0 0  1.23 0 0  1.26 0 0  1.29 0 0  1.32 0 0  1.35 0 0  1.38 0 0  1.41 0 0  1.44 0 0  1.47 0 0  1.5 0 0  0 0.02 0  0.03 0.02 0  0.06 0.02 0  0.09 0.02 0  0.12 0.02 0  0.15 0.02 0  0.18 0.02 0  0.21 0.02 0  0.24 0.02 0  0.27 0.02 0  0.3 0.02 0  0.33 0.02 0  0.36 0.02 0  0.39 0.02 0  0.42 0.02 0  0.45 0.02 0  0.48 0.02 0  0.51 0.02 0  0.54 0.02 0  0.57 0.02 0  0.6 0.02 0  0.63 0.02 0  0.66 0.02 0  0.6899999999999999 0.02 0  0.72 0.02 0  0.75 0.02 0  0.78 0.02 0  0.8100000000000001 0.02 0  0.84 0.02 0  0.87 0.02 0  0.9 0.02 0  0.93 0.02 0  0.96 0.02 0  0.99 0.02 0  1.02 0.02 0  1.05 0.02 0  1.08 0.02 0  1.11 0.02 0  1.14 0.02 0  1.17 0.02 0  1.2 0.02 0  1.23 0.02 0  1.26 0.02 0  1.29 0.02 0  1.32 0.02 0  1.35 0.02 0  1.38 0.02 0  1.41 0.02 0  1.44 0.02 0  1.47 0.02 0  1.5 0.02 0  0 0.04 0  0.03 0.04 0  0.06 0.04 0  0.09 0.04 0  0.12 0.04 0  0.15 0.04 0  0.18 0.04 0  0.21 0.04 0  0.24 0.04 0  0.27 0.04 0  0.3 0.04 0  0.33 0.04 0  0.36 0.04 0  0.39 0.04 0  0.42 0.04 0  0.45 0.04 0  0.48 0.04 0  0.51 0.04 0  0.54 0.04 0  0.57 0.04 0  0.6 0.04 0  0.63 0.04 0  0.66 0.04 0  0.6899999999999999 0.04 0  0.72 0.04 0  0.75 0.04 0  0.78 0.04 0  0.8100000000000001 0.04 0  0.84 0.04 0  0.87 0.04 0  0.9 0.04 0  0.93 0.04 0  0.96 0.04 0  0.99 0.04 0  1.02 0.04 0  1.05 0.04 0  1.08 0.04 0  1.11 0.04 0  1.14 0.04 0  1.17 0.04 0  1.2 0.04 0  1.23 0.04 0  1.26 0.04 0  1.29 0.04 0  1.32 0.04 0  1.35 0.04 0  1.38 0.04 0  1.41 0.04 0  1.44 0.04 0  1.47 0.04 0  1.5 0.04 0  0 0.06 0  0.03 0.06 0  0.06 0.06 0  0.09 0.06 0  0.12 0.06 0  0.15 0.06 0  0.18 0.06 0  0.21 0.06 0  0.24 0.06 0  0.27 0.06 0  0.3 0.06 0  0.33 0.06 0  0.36 0.06 0  0.39 0.06 0  0.42 0.06 0  0.45 0.06 0  0.48 0.06 0  0.51 0.06 0  0.54 0.06 0  0.57 0.06 0  0.6 0.06 0  0.63 0.06 0  0.66 0.06 0  0.6899999999999999 0.06 0  0.72 0.06 0  0.75 0.06 0  0.78 0.06 0  0.8100000000000001 0.06 0  0.84 0.06 0  0.87 0.06 0  0.9 0.06 0  0.93 0.06 0  0.96 0.06 0  0.99 0.06 0  1.02 0.06 0  1.05 0.06 0  1.08 0.06 0  1.11 0.06 0  1.14 0.06 0  1.17 0.06 0  1.2 0.06 0  1.23 0.06 0  1.26 0.06 0  1.29 0.06 0  1.32 0.06 0  1.35 0.06 0  1.38 0.06 0  1.41 0.06 0  1.44 0.06 0  1.47 0.06 0  1.5 0.06 0  0 0.08 0  0.03 0.08 0  0.06 0.08 0  0.09 0.08 0  0.12 0.08 0  0.15 0.08 0  0.18 0.08 0  0.21 0.08 0  0.24 0.08 0  0.27 0.08 0  0.3 0.08 0  0.33 0.08 0  0.36 0.08 0  0.39 0.08 0  0.42 0.08 0  0.45 0.08 0  0.48 0.08 0  0.51 0.08 0  0.54 0.08 0  0.57 0.08 0  0.6 0.08 0  0.63 0.08 0  0.66 0.08 0  0.6899999999999999 0.08 0  0.72 0.08 0  0.75 0.08 0  0.78 0.08 0  0.8100000000000001 0.08 0  0.84 0.08 0  0.87 0.08 0  0.9 0.08 0  0.93 0.08 0  0.96 0.08 0  0.99 0.08 0  1.02 0.08 0  1.05 0.08 0  1.08 0.08 0  1.11 0.08 0  1.14 0.08 0  1.17 0.08 0  1.2 0.08 0  1.23 0.08 0  1.26 0.08 0  1.29 0.08 0  1.32 0.08 0  1.35 0.08 0  1.38 0.08 0  1.41 0.08 0  1.44 0.08 0  1.47 0.08 0  1.5 0.08 0  0 0.1 0  0.03 0.1 0  0.06 0.1 0  0.09 0.1 0  0.12 0.1 0  0.15 0.1 0  0.18 0.1 0  0.21 0.1 0  0.24 0.1 0  0.27 0.1 0  0.3 0.1 0  0.33 0.1 0  0.36 0.1 0  0.39 0.1 0  0.42 0.1 0  0.45 0.1 0  0.48 0.1 0  0.51 0.1 0  0.54 0.1 0  0.57 0.1 0  0.6 0.1 0  0.63 0.1 0  0.66 0.1 0  0.6899999999999999 0.1 0  0.72 0.1 0  0.75 0.1 0  0.78 0.1 0  0.8100000000000001 0.1 0  0.84 0.1 0  0.87 0.1 0  0.9 0.1 0  0.93 0.1 0  0.96 0.1 0  0.99 0.1 0  1.02 0.1 0  1.05 0.1 0  1.08 0.1 0  1.11 0.1 0  1.14 0.1 0  1.17 0.1 0  1.2 0.1 0  1.23 0.1 0  1.26 0.1 0  1.29 0.1 0  1.32 0.1 0  1.35 0.1 0  1.38 0.1 0  1.41 0.1 0  1.44 0.1 0  1.47 0.1 0  1.5 0.1 0  0 0.12 0  0.03 0.12 0  0.06 0.12 0  0.09 0.12 0  0.12 0.12 0  0.15 0.12 0  0.18 0.12 0  0.21 0.12 0  0.24 0.12 0  0.27 0.12 0  0.3 0.12 0  0.33 0.12 0  0.36 0.12 0  0.39 0.12 0  0.42 0.12 0  0.45 0.12 0  0.48 0.12 0  0.51 0.12 0  0.54 0.12 0  0.57 0.12 0  0.6 0.12 0  0.63 0.12 0  0.66 0.12 0  0.6899999999999999 0.12 0  0.72 0.12 0  0.75 0.12 0  0.78 0.12 0  0.8100000000000001 0.12 0  0.84 0.12 0  0.87 0.12 0  0.9 0.12 0  0.93 0.12 0  0.96 0.12 0  0.99 0.12 0  1.02 0.12 0  1.05 0.12 0  1.08 0.12 0  1.11 0.12 0  1.14 0.12 0  1.17 0.12 0  1.2 0.12 0  1.23 0.12 0  1.26 0.12 0  1.29 0.12 0  1.32 0.12 0  1.35 0.12 0  1.38 0.12 0  1.41 0.12 0  1.44 0.12 0  1.47 0.12 0  1.5 0.12 0  0 0.14 0  0.03 0.14 0  0.06 0.14 0  0.09 0.14 0  0.12 0.14 0  0.15 0.14 0  0.18 0.14 0  0.21 0.14 0  0.24 0.14 0  0.27 0.14 0  0.3 0.14 0  0.33 0.14 0  0.36 0.14 0  0.39 0.14 0  0.42 0.14 0  0.45 0.14 0  0.48 0.14 0  0.51 0.14 0  0.54 0.14 0  0.57 0.14 0  0.6 0.14 0  0.63 0.14 0  0.66 0.14 0  0.6899999999999999 0.14 0  0.72 0.14 0  0.75 0.14 0  0.78 0.14 0  0.8100000000000001 0.14 0  0.84 0.14 0  0.87 0.14 0  0.9 0.14 0  0.93 0.14 0  0.96 0.14 0  0.99 0.14 0  1.02 0.14 0  1.05 0.14 0  1.08 0.14 0  1.11 0.14 0  1.14 0.14 0  1.17 0.14 0  1.2 0.14 0  1.23 0.14 0  1.26 0.14 0  1.29 0.14 0  1.32 0.14 0  1.35 0.14 0  1.38 0.14 0  1.41 0.14 0  1.44 0.14 0  1.47 0.14 0  1.5 0.14 0  0 0.16 0  0.03 0.16 0  0.06 0.16 0  0.09 0.16 0  0.12 0.16 0  0.15 0.16 0  0.18 0.16 0  0.21 0.16 0  0.24 0.16 0  0.27 0.16 0  0.3 0.16 0  0.33 0.16 0  0.36 0.16 0  0.39 0.16 0  0.42 0.16 0  0.45 0.16 0  0.48 0.16 0  0.51 0.16 0  0.54 0.16 0  0.57 0.16 0  0.6 0.16 0  0.63 0.16 0  0.66 0.16 0  0.6899999999999999 0.16 0  0.72 0.16 0  0.75 0.16 0  0.78 0.16 0  0.8100000000000001 0.16 0  0.84 0.16 0  0.87 0.16 0  0.9 0.16 0  0.93 0.16 0  0.96 0.16 0  0.99 0.16 0  1.02 0.16 0  1.05 0.16 0  1.08 0.16 0  1.11 0.16 0  1.14 0.16 0  1.17 0.16 0  1.2 0.16 0  1.23 0.16 0  1.26 0.16 0  1.29 0.16 0  1.32 0.16 0  1.35 0.16 0  1.38 0.16 0  1.41 0.16 0  1.44 0.16 0  1.47 0.16 0  1.5 0.16 0  0 0.18 0  0.03 0.18 0  0.06 0.18 0  0.09 0.18 0  0.12 0.18 0  0.15 0.18 0  0.18 0.18 0  0.21 0.18 0  0.24 0.18 0  0.27 0.18 0  0.3 0.18 0  0.33 0.18 0  0.36 0.18 0  0.39 0.18 0  0.42 0.18 0  0.45 0.18 0  0.48 0.18 0  0.51 0.18 0  0.54 0.18 0  0.57 0.18 0  0.6 0.18 0  0.63 0.18 0  0.66 0.18 0  0.6899999999999999 0.18 0  0.72 0.18 0  0.75 0.18 0  0.78 0.18 0  0.8100000000000001 0.18 0  0.84 0.18 0  0.87 0.18 0  0.9 0.18 0  0.93 0.18 0  0.96 0.18 0  0.99 0.18 0  1.02 0.18 0  1.05 0.18 0  1.08 0.18 0  1.11 0.18 0  1.14 0.18 0  1.17 0.18 0  1.2 0.18 0  1.23 0.18 0  1.26 0.18 0  1.29 0.18 0  1.32 0.18 0  1.35 0.18 0  1.38 0.18 0  1.41 0.18 0  1.44 0.18 0  1.47 0.18 0  1.5 0.18 0  0 0.2 0  0.03 0.2 0  0.06 0.2 0  0.09 0.2 0  0.12 0.2 0  0.15 0.2 0  0.18 0.2 0  0.21 0.2 0  0.24 0.2 0  0.27 0.2 0  0.3 0.2 0  0.33 0.2 0  0.36 0.2 0  0.39 0.2 0  0.42 0.2 0  0.45 0.2 0  0.48 0.2 0  0.51 0.2 0  0.54 0.2 0  0.57 0.2 0  0.6 0.2 0  0.63 0.2 0  0.66 0.2 0  0.6899999999999999 0.2 0  0.72 0.2 0  0.75 0.2 0  0.78 0.2 0  0.8100000000000001 0.2 0  0.84 0.2 0  0.87 0.2 0  0.9 0.2 0  0.93 0.2 0  0.96 0.2 0  0.99 0.2 0  1.02 0.2 0  1.05 0.2 0  1.08 0.2 0  1.11 0.2 0  1.14 0.2 0  1.17 0.2 0  1.2 0.2 0  1.23 0.2 0  1.26 0.2 0  1.29 0.2 0  1.32 0.2 0  1.35 0.2 0  1.38 0.2 0  1.41 0.2 0  1.44 0.2 0  1.47 0.2 0  1.5 0.2 0  0 0.22 0  0.03 0.22 0  0.06 0.22 0  0.09 0.22 0  0.12 0.22 0  0.15 0.22 0  0.18 0.22 0  0.21 0.22 0  0.24 0.22 0  0.27 0.22 0  0.3 0.22 0  0.33 0.22 0  0.36 0.22 0  0.39 0.22 0  0.42 0.22 0  0.45 0.22 0  0.48 0.22 0  0.51 0.22 0  0.54 0.22 0  0.57 0.22 0  0.6 0.22 0  0.63 0.22 0  0.66 0.22 0  0.6899999999999999 0.22 0  0.72 0.22 0  0.75 0.22 0  0.78 0.22 0  0.8100000000000001 0.22 0  0.84 0.22 0  0.87 0.22 0  0.9 0.22 0  0.93 0.22 0  0.96 0.22 0  0.99 0.22 0  1.02 0.22 0  1.05 0.22 0  1.08 0.22 0  1.11 0.22 0  1.14 0.22 0  1.17 0.22 0  1.2 0.22 0  1.23 0.22 0  1.26 0.22 0  1.29 0.22 0  1.32 0.22 0  1.35 0.22 0  1.38 0.22 0  1.41 0.22 0  1.44 0.22 0  1.47 0.22 0  1.5 0.22 0  0 0.24 0  0.03 0.24 0  0.06 0.24 0  0.09 0.24 0  0.12 0.24 0  0.15 0.24 0  0.18 0.24 0  0.21 0.24 0  0.24 0.24 0  0.27 0.24 0  0.3 0.24 0  0.33 0.24 0  0.36 0.24 0  0.39 0.24 0  0.42 0.24 0  0.45 0.24 0  0.48 0.24 0  0.51 0.24 0  0.54 0.24 0  0.57 0.24 0  0.6 0.24 0  0.63 0.24 0  0.66 0.24 0  0.6899999999999999 0.24 0  0.72 0.24 0  0.75 0.24 0  0.78 0.24 0  0.8100000000000001 0.24 0  0.84 0.24 0  0.87 0.24 0  0.9 0.24 0  0.93 0.24 0  0.96 0.24 0  0.99 0.24 0  1.02 0.24 0  1.05 0.24 0  1.08 0.24 0  1.11 0.24 0  1.14 0.24 0  1.17 0.24 0  1.2 0.24 0  1.23 0.24 0  1.26 0.24 0  1.29 0.24 0  1.32 0.24 0  1.35 0.24 0  1.38 0.24 0  1.41 0.24 0  1.44 0.24 0  1.47 0.24 0  1.5 0.24 0  0 0.26 0  0.03 0.26 0  0.06 0.26 0  0.09 0.26 0  0.12 0.26 0  0.15 0.26 0  0.18 0.26 0  0.21 0.26 0  0.24 0.26 0  0.27 0.26 0  0.3 0.26 0  0.33 0.26 0  0.36 0.26 0  0.39 0.26 0  0.42 0.26 0  0.45 0.26 0  0.48 0.26 0  0.51 0.26 0  0.54 0.26 0  0.57 0.26 0  0.6 0.26 0  0.63 0.26 0  0.66 0.26 0  0.6899999999999999 0.26 0  0.72 0.26 0  0.75 0.26 0  0.78 0.26 0  0.8100000000000001 0.26 0  0.84 0.26 0  0.87 0.26 0  0.9 0.26 0  0.93 0.26 0  0.96 0.26 0  0.99 0.26 0  1.02 0.26 0  1.05 0.26 0  1.08 0.26 0  1.11 0.26 0  1.14 0.26 0  1.17 0.26 0  1.2 0.26 0  1.23 0.26 0  1.26 0.26 0  1.29 0.26 0  1.32 0.26 0  1.35 0.26 0  1.38 0.26 0  1.41 0.26 0  1.44 0.26 0  1.47 0.26 0  1.5 0.26 0  0 0.28 0  0.03 0.28 0  0.06 0.28 0  0.09 0.28 0  0.12 0.28 0  0.15 0.28 0  0.18 0.28 0  0.21 0.28 0  0.24 0.28 0  0.27 0.28 0  0.3 0.28 0  0.33 0.28 0  0.36 0.28 0  0.39 0.28 0  0.42 0.28 0  0.45 0.28 0  0.48 0.28 0  0.51 0.28 0  0.54 0.28 0  0.57 0.28 0  0.6 0.28 0  0.63 0.28 0  0.66 0.28 0  0.6899999999999999 0.28 0  0.72 0.28 0  0.75 0.28 0  0.78 0.28 0  0.8100000000000001 0.28 0  0.84 0.28 0  0.87 0.28 0  0.9 0.28 0  0.93 0.28 0  0.96 0.28 0  0.99 0.28 0  1.02 0.28
[...]
<PointData  Scalars="sensitivity"> 
<DataArray  type="Float64"  Name="sensitivity"  format="ascii">-1.3910909783640381e-07  -3.6210572944162407e-06  -1.9049920706218900e-05  -5.5309005756254043e-05  -1.1410712532218829e-04  -1.8774460544078108e-04  -2.6446610602301837e-04  -3.3421982659772231e-04  -3.9123560228027663e-04  -4.3478740369100338e-04  -4.6838997784728295e-04  -4.9696400834720272e-04  -5.2342718979627822e-04  -5.4720312063016624e-04  -5.6562442267051700e-04  -5.7681064632200847e-04  -5.8140755689198959e-04  -5.8191702315285566e-04  -5.8084728898657979e-04  -5.7958406875646446e-04  -5.7850451256603061e-04  -5.7760560666299894e-04  -5.7689891222748697e-04  -5.7643407626245221e-04  -5.7619881480505653e-04  -5.7610133061238489e-04  -5.7605282400887304e-04  -5.7607727799524079e-04  -5.7638957288871527e-04  -5.7738536167747999e-04  -5.7942781618656872e-04  -5.8232558276125903e-04  -5.8467812505467944e-04  -5.8377564167649961e-04  -5.7686193975751087e-04  -5.6343255089552396e-04  -5.4637999806928504e-04  -5.2995231968544542e-04  -5.1564626099807128e-04  -4.9971921398876099e-04  -4.7491172190937295e-04  -4.3509068309053770e-04  -3.7862142800503863e-04  -3.0826449452347511e-04  -2.2946516708659259e-04  -1.5000637369448641e-04  -8.0741195689666164e-05  -3.2468340686163499e-05  -8.2428621827414796e-06  -7.0624687443125645e-07  -1.6726203066477675e-09  -1.9614470176056495e-06  -3.9565255394331034e-05  -1.9814347787504925e-04  -5.8262861666249610e-04  -1.2201279762642989e-03  -2.0257107068147491e-03  -2.8658986579336953e-03  -3.6266919364583957e-03  -4.2407464310961146e-03  -4.6960180705126458e-03  -5.0319055087735334e-03  -5.3105803551649266e-03  -5.5751208017196727e-03  -5.8257479837045831e-03  -6.0308990067824055e-03  -6.1613668549668791e-03  -6.2166476222640255e-03  -6.2221818230161667e-03  -6.2076231102367214e-03  -6.1907142757052971e-03  -6.1766438851251788e-03  -6.1652935409241081e-03  -6.1565062546313758e-03  -6.1507348874421221e-03  -6.1478314830825014e-03  -6.1466984446891700e-03  -6.1461947310902819e-03  -6.1464006881565003e-03  -6.1495283774304493e-03  -6.1600204532489501e-03  -6.1827217379626757e-03  -6.2175727620510709e-03  -6.2517559887206534e-03  -6.2562629531705497e-03  -6.1974979843324399e-03  -6.0642209593856000e-03  -5.8865751935544977e-03  -5.7187539312728393e-03  -5.5909143519307881e-03  -5.4713613506596750e-03  -5.2762719880116247e-03  -4.9231352154198464e-03  -4.3790499079592402e-03  -3.6645832471435664e-03  -2.8298358015353990e-03  -1.9463090082803888e-03  -1.1245462708692467e-03  -5.0177097001391654e-04  -1.5382090630917049e-04  -2.4021154304379176e-05  -4.6692966984834614e-07  -7.2885556542493701e-06  -1.1130973165743101e-04  -4.6901621552616457e-04  -1.2836458291325865e-03  -2.5746169818866458e-03  -4.1288475103156289e-03  -5.6819919075285644e-03  -7.0402693393190633e-03  -8.0960644813737187e-03  -8.8333874889270445e-03  -9.3362276161784094e-03  -9.7421954241441282e-03  -1.0151835441453682e-02  -1.0570446463342957e-02  -1.0926881215725517e-02  -1.1148690408796041e-02  -1.1226197496856225e-02  -1.1210147113961512e-02  -1.1161919214843342e-02  -1.1116128566476162e-02  -1.1080141824921752e-02  -1.1051460287729957e-02  -1.1029263649074156e-02  -1.1014777494335670e-02  -1.1007803370387197e-02  -1.1005787808614154e-02  -1.1005901193110445e-02  -1.1007746971161789e-02  -1.1015206063002152e-02  -1.1037093514401797e-02  -1.1084892290037828e-02  -1.1163476167590209e-02  -1.1253971932511347e-02  -1.1301032571192381e-02  -1.1230297575719139e-02  -1.1006849625692166e-02  -1.0688785164004283e-02  -1.0401467221782104e-02  -1.0231469585337856e-02  -1.0131147874217462e-02  -9.9254148404829771e-03  -9.4279780301172716e-03  -8.5587878373720276e-03  -7.3511197403918482e-03  -5.8840392971120431e-03  -4.2511849644358262e-03  -2.6176876980636239e-03  -1.2661214583677548e-03  -4.3874980106557265e-04  -9.2039387064252995e-05  -3.8160091022460679e-06  -1.5591627030873614e-05  -2.4459201166562134e-04  -9.3717349859511443e-04  -2.3055821739469571e-03  -4.1972023076140312e-03  -6.1950769034135695e-03  -7.9893099761639205e-03  -9.4525176746767699e-03  -1.0534131670643524e-02  -1.1234695073980054e-02  -1.1662059745307863e-02  -1.2002732782668933e-02  -1.2393922810241651e-02  -1.2833390934860450e-02  -1.3207402340644195e-02  -1.3406726287266871e-02  -1.3423491710032608e-02  -1.3338710937667414e-02  -1.3238637029378421e-02  -1.3161376155332990e-02  -1.3105326917349365e-02  -1.3060598187609039e-02  -1.3025224529718705e-02  -1.3002106493537608e-02  -1.2991615691625458e-02  -1.2989897117073134e-02  -1.2992190063444932e-02  -1.2996734962435006e-02  -1.3007302056075875e-02  -1.3034998150836757e-02  -1.3097898864906862e-02  -1.3211389217109046e-02  -1.3363293914369705e-02  -1.3486401764205461e-02  -1.3469875409936981e-02  -1.3243594763821262e-02  -1.2877887349363780e-02  -1.2563846818555385e-02  -1.2451075627291027e-02  -1.2491029095396908e-02  -1.2441154114311920e-02  -1.2047789295923157e-02  -1.1211988093783602e-02  -9.9682988263675703e-03  -8.3806103968624424e-03  -6.4767538405854476e-03  -4.3381148560016347e-03  -2.3047782701591771e-03  -8.7508412743251890e-04  -2.0483959105234970e-04  -1.0860870545016808e-05  -2.4025650320374589e-05  -5.0729229977055702e-04  -1.9986900474652054e-03  -4.4451413256336647e-03  -7.1977715038904220e-03  -9.5792010758184182e-03  -1.1274081575625804e-02  -1.2342196584673906e-02  -1.2989587155742329e-02  -1.3350932849975301e-02  -1.3534556327688551e-02  -1.3712143932018625e-02  -1.4018127200341788e-02  -1.4419917585190385e-02  -1.4744768010778835e-02  -1.4843980487892552e-02  -1.4726887213850872e-02  -1.4522496797499600e-02  -1.4345578849056956e-02  -1.4228583583789480e-02  -1.4149820356771828e-02  -1.4086338862064169e-02  -1.4034755899814996e-02  -1.4001045511265483e-02  -1.3986815323160420e-02  -1.3986691375328812e-02  -1.3993382216525466e-02  -1.4002879994613136e-02  -1.4017535919919319e-02  -1.4049513322305668e-02  -1.4124243717423600e-02  -1.4273272953725281e-02  -1.4502335332410878e-02  -1.4741801618406084e-02  -1.4838439166787986e-02  -1.4664452286067848e-02  -1.4288750009683129e-02  -1.3981900978182771e-02  -1.3986015737104618e-02  -1.4278550790691283e-02  -1.4566231994158827e-02  -1.4521939188257666e-02  -1.3998793414706841e-02  -1.3029983478487732e-02  -1.1693415544813662e-02  -9.9188622157756149e-03  -7.5166887156633937e-03  -4.5703850680351909e-03  -1.8755259124449404e-03  -4.0385234272835639e-04  -1.8985683581140252e-05  -3.7385588412397334e-05  -1.1847278409926171e-03  -4.6310098533839895e-03  -8.6643224440333330e-03  -1.1954049369251322e-02  -1.4568743757964303e-02  -1.6474530209943848e-02  -1.7189406058803133e-02  -1.6784184904495326e-02  -1.6023740713898203e-02  -1.5486359702020709e-02  -1.5339357453856294e-02  -1.5539202720487351e-02  -1.5908929249476726e-02  -1.6161977649360358e-02  -1.6098277592567694e-02  -1.5769997761453384e-02  -1.5384873606963979e-02  -1.5095675711881189e-02  -1.4920895780690748e-02  -1.4807058010232797e-02  -1.4712706595224605e-02  -1.4634032889498065e-02  -1.4582433217752159e-02  -1.4561410038418085e-02  -1.4563467958856038e-02  -1.4578048413270997e-02  -1.4598149167585318e-02  -1.4623525138902381e-02  -1.4666040063983025e-02  -1.4758564309143128e-02  -1.4953809537760501e-02  -1.5287076512479078e-02  -1.5696073042359534e-02  -1.5974403265484143e-02  -1.5900860959654931e-02  -1.5522142314718351e-02  -1.5222597239267817e-02  -1.5420849231860904e-02  -1.6188471127019724e-02  -1.7122466438759480e-02  -1.7680587479823883e-02  -1.7641662648031797e-02  -1.6930369839574449e-02  -1.5897330039755568e-02  -1.4741763155357052e-02  -1.2864408547994494e-02  -9.4817334519674400e-03  -4.5673587477023138e-03  -8.6891006399023886e-04  -2.5565237831951466e-05  -1.2245944376290362e-04  -3.3831262194657062e-03  -1.0847658668775318e-02  -1.6145951255189073e-02  -1.7994801602156107e-02  -1.8721217824466313e-02  -2.0282473812601419e-02  -2.2318906189349421e-02  -2.2721659516989963e-02  -2.0847034625394705e-02  -1.8505886745435157e-02  -1.7256033989266721e-02  -1.7101738006775252e-02  -1.7456981013027728e-02  -1.7692258434220304e-02  -1.7455285019766807e-02  -1.6857360111318172e-02  -1.6234374221013839e-02  -1.5796293953523197e-02  -1.5540712011581097e-02  -1.5371170319433336e-02  -1.5224310730866292e-02  -1.5099498710680278e-02  -1.5017260132051069e-02  -1.4983453994640629e-02  -1.4987313381863751e-02  -1.5014279500974287e-02  -1.5053876357109272e-02  -1.5101982505983158e-02  -1.5167936002910665e-02  -1.5290382758107629e-02  -1.5546933282476928e-02  -1.6013751179015386e-02  -1.6647592863962096e-02  -1.7177401614802915e-02  -1.7246904290188055e-02  -1.6863668507995387e-02  -1.6613419340670992e-02  -1.7238220798117949e-02  -1.8877669731789750e-02  -2.0651832164632206e-02  -2.1647995234301276e-02  -2.1479991519002817e-02  -2.1191042893295414e-02  -2.0751922496114721e-02  -2.0558309760470760e-02  -1.9599564030302098e-02  -1.6387612757007734e-02  -1.0986242020160540e-02  -2.7798751984380895e-03  -4.2644392468430964e-05  -7.1891367822067304e-04  -1.0070486625341562e-02  -2.0175590923973280e-02  -2.5619769625309746e-02  -2.6746782569212646e-02  -2.5273118989916764e-02  -2.3486121748900073e-02  -2.3296103334497015e-02  -2.5416535102526918e-02  -2.5872186259989292e-02  -2.3470329822486098e-02  -2.0601346300305384e-02  -1.9220519736816658e-02  -1.9084463222770753e-02  -1.9224564813515563e-02  -1.8876717589092214e-02  -1.8043414349112656e-02  -1.7184919794793928e-02  -1.6595275573562215e-02  -1.6252622868657685e-02  -1.6008848068294106e-02  -1.5781876696112196e-02  -1.5585131190286702e-02  -1.5455050113328440e-02  -1.5399950512470810e-02  -1.5403876985209636e-02  -1.5447815515269137e-02  -1.5517900838613749e-02  -1.5604398072389633e-02  -1.5709740492212076e-02  -1.5872981943238929e-02  -1.6194677312848148e-02  -1.6799160774342251e-02  -1.7685847996155885e-02  -1.8526288381645325e-02  -1.8820045714098736e-02  -1.8492697428065134e-02  -1.8399494551572301e-02  -1.9779246395990133e-02  -2.2524095800545898e-02  -2.4814909185068377e-02  -2.4936015958498096e-02  -2.5453619719784545e-02  -2.5281773914833269e-02  -2.6391926370365814e-02  -2.8129610424190900e-02  -2.8139903337078043e-02  -2.4360068905783645e-02  -1.7567021455441156e-02  -8.1166556352637916e-03  -1.6711727104904973e-04  -4.7305622719893848e-03  -2.1997638301567531e-02  -2.7602637148013955e-02  -3.0491820638772406e-02  -3.2959943764207154e-02  -3.3167061975489798e-02  -3.1062484119563902e-02  -2.7604493666333729e-02  -2.5293461372372431e-02  -2.5616290576679440e-02  -2.5687527749924343e-02  -2.4390072326775376e-02  -2.3095486866613325e-02  -2.1969319790780314e-02  -2.1069027453390007e-02  -2.0160586070972163e-02  -1.9097748565270266e-02  -1.8118641653085250e-02  -1.7472576918611440e-02  -1.7105040268030770e-02  -1.6808552400049252e-02  -1.6489285236442115e-02  -1.6199305521369389e-02  -1.6006133592250407e-02  -1.5921551843746926e-02  -1.5921916061288528e-02  -1.5984197217092933e-02  -1.6092206770779008e-02  -1.6227712648171060e-02  -1.6378400913511362e-02  -1.6572870723531363e-02  -1.6922398521223549e-02  -1.7616336567630120e-02  -1.8797793491864126e-02  -2.0137183271013989e-02  -2.0865300275923461e-02  -2.0591898265487699e-02  -2.0465383616930455e-02  -2.2129977066982214e-02  -2.5418026228241228e-02  -2.6901253182042374e-02  -2.8707814022154533e-02  -2.8730559587056104e-02  -2.9917645903745758e-02  -3.1598487243258921e-02  -3.2896773522452905e-02  -3.3119558588722765e-02  -3.1381039842826752e-02  -2.6422679019056029e-02  -1.8453442149590119e-02  -2.2481382841456014e-03  -1.6490503446972633e-02  -3.2425688930055471e-02  -3.2747992042501402e-02  -3.2191729304428145e-02  -3.2989659870190723e-02  -3.4509776485760826e-02  -3.5309626419241867e-02  -3.3845349812358691e-02  -3.0324118333439034e-02  -2.6697711237396712e-02  -2.4491435859957621e-02  -2.3769925046280813e-02  -2.5660779955022247e-02  -2.6732744696403844e-02  -2.5268116046227446e-02  -2.2630333524500498e-02  -2.0243460503445106e-02  -1.8834068777096039e-02  -1.8195163188710225e-02  -1.7931779820042393e-02  -1.7686098388837463e-02  -1.7324537237117743e-02  -1.6959350870644523e-02  -1.6712125179312334e-02  -1.6601884466430683e-02  -1.6595635636544603e-02  -1.6669319250920515e-02  -1.6808136581117673e-02  -1.6983216682363352e-02  -1.7161680696849299e-02  -1.7359388502035025e-02  -1.7713870195334856e-02  -1.8609661791575374e-02  -2.0560914911952100e-02  -2.2890929923702216e-02  -2.4051483195585761e-02  -2.3188722469846483e-02  -2.1918688405494831e-02  -2.3013198557179586e-02  -2.6438601818965603e-02  -2.9189898122098601e-02  -3.0315791576692893e-02  -3.1657028728952138e-02  -3.3440903573290784e-02  -3.4753084481815029e-02  -3.4644425413087959e-02  -3.3872822945124718e-02  -3.3334133662465917e-02  -3.2581979174434839e-02  -3.2118677636298269e-02  -1.3874166080000890e-02  -2.6244441650085631e-02  -4.3476416452778083e-02  -3.8817892465062724e-02  -3.5625945348851523e-02  -3.4100786575257905e-02  -3.3815960722909363e-02  -3.4744136371008122e-02  -3.5670297220812552e-02  -3.5116458246480589e-02  -3.2519603322392898e-02  -2.8531127941529465e-02  -2.4551468504651463e-02  -2.4018554230595377e-02  -2.8768352850839590e-02  -2.8012036271795149e-02  -2.6915587717768235e-02  -2.3674607829964063e-02  -2.0861491006137031e-02  -1.9504379811985290e-02  -1.9034583865633697e-02  -1.8746762715679349e-02  -1.8337515450302887e-02  -1.7920442939269962e-02  -1.7651861329692368e-02  -1.7541723095796751e-02  -1.7540918702484899e-02  -1.7633291979885106e-02  -1.7821637763625050e-02  -1.8077764061308035e-02  -1.8349930189196097e-02  -1.8637620821899507e-02  -1.9129088575352782e-02  -2.0511061600966631e-02  -2.2912892606189471e-02  -2.4192725454656651e-02  -2.5755028731879639e-02  -2.5749128588562618e-02  -2.3640473844407511e-02  -2.4043130978080970e-02  -2.7608248847580757e-02  -3.1081886418708286e-02  -3.3042023533990890e-02  -3.4631052470938575e-02  -3.5780505298376536e-02  -3.5659762444851015e-02  -3.5118892400553346e-02  -3.5204090390729859e-02  -3.6739292493157966e-02  -3.9511480134361274e-02  -4.3927766352874584e-02  -2.4231093458204171e-02  -3.6107926000502041e-02  -5.8587481186665361e-02  -4.6644512217768844e-02  -4.0388068186199166e-02  -3.6996157325287465e-02  -3.5360173767914671e-02  -3.4818971020199818e-02  -3.5278958805795901e-02  -3.6046508499233416e-02  -3.6136056480175739e-02  -3.4723265082608853e-02  -3.0887328249007147e-02  -2.6195612780818125e-02  -2.6421071446501070e-02  -2.8835127445506644e-02  -2.5878336234691136e-02  -2.6072160059058765e-02  -2.4848284772418440e-02  -2.3151943049324827e-02  -2.2137667163536549e-02  -2.1366500812936878e-02  -2.0547225405580703e-02  -1.9885555740359329e-02  -1.9519901677968993e-02  -1.9387445261685437e-02  -1.9394493664250698e-02  -1.9539232187684080e-02  -1.9851823330606744e-02  -2.0294925087030763e-02  -2.0776067275776137e-02  -2.1261953548022818e-02  -2.1944052012977142e-02  -2.3480661804759630e-02  -2.5805240870123994e-02  -2.2536705917614804e-02  -1.5752231913498026e-02  -2.8375209478126204e-02  -2.6967899598544922e-02  -2.8061928165270297e-02  -3.1810812004461335e-02  -3.4703282398529392e-02  -3.6138758969288476e-02  -3.6916489808428897e-02  -3.6835067237875829e-02  -3.6427000592204169e-02  -3.6500268030853600e-02  -3.8029536495409341e-02  -4.1609918033221997e-02  -4.8098281931908439e-02  -5.9631924106631665e-02  -3.3425599698052408e-02  -4.2138882441423345e-02  -7.0803556112468496e-02  -5.5304482534679636e-02  -4.4780683101682157e-02  -3.9637931635012211e-02  -3.7330554292773328e-02  -3.6233103708246124e-02  -3.5748323285713986e-02  -3.6024129513712665e-02  -3.6659069042233955e-02  -3.7115034526699647e-02  -3.6572528118109807e-02  -3.3151472160893460e-02  -2.8289827098080145e-02  -2.7610799692016449e-02  -2.8833848709966872e-02  -2.8876637214474650e-02  -2.6363165848416713e-02  -2.4120923098457401e-02  -2.4017856702510131e-02  -2.4275447979564699e-02  -2.3616262612975048e-02  -2.2878481847558200e-02  -2.2504791244060629e-02  -2.2370563008720559e-02  -2.2340561831580712e-02  -2.2475208305183257e-02  -2.2836041553419398e-02  -2.3273834962347098e-02  -2.3483834555436275e-02  -2.3318261745555742e-02  -2.3174144279904978e-02  -2.3949252260464408e-02  -2.6138972364901550e-02  -2.8593736103706080e-02  -3.0342432923426550e-02  -3.0613226456831202e-02  -3.1050234367651242e-02  -3.2581006968319788e-02  -3.5555139195457816e-02  -3.7363443557316481e-02  -3.7930698352658540e-02  -3.7750114218477453e-02  -3.7458060761082393e-02  -3.7456679719720436e-02  -3.8390738166740365e-02  -4.0998687585804348e-02  -4.5900524187161298e-02  -5.5770431875140435e-02  -7.0934179168908276e-02  -4.1004896166457444e-02  -4.1201903567215536e-02  -7.2243965446065803e-02  -5.7875326610888657e-02  -4.7606259610751385e-02  -4.1316698310452822e-02  -3.8547020662854516e-02  -3.7404939166272362e-02  -3.6761578788746967e-02  -3.6439451552694409e-02  -3.6745827103346784e-02  -3.7410271404591328e-02  -3.8109987872531219e-02  -3.8187612264243283e-02  -3.5492863561714202e-02  -3.0670431550845010e-02  -2.7971539706989904e-02  -2.6642618220540128e-02  -2.4577050204680539e-02  -2.4352835860748056e-02  -2.6227073945410281e-02  -2.7066290613768581e-02  -2.6077526420440745e-02  -2.4889040556976359e-02  -2.4478107688480539e-02  -2.4505841095423961e-02  -2.4548206051389385e-02  -2.4620628096392049e-02  -2.4893030239129834e-02  -2.5294045462657688e-02  -2.5537911636009158e-02  -2.5352409479991948e-02  -2.4842040365188278e-02  -2.4906220556304665e-02  -2.6470783751287988e-02  -2.9121637225271963e-02  -3.1618426229379971e-02  -3.3188727231353618e-02  -3.4287079579483078e-02  -3.5947419890358816e-02  -3.7587495363399254e-02  -3.8191685100575974e-02  -3.8163182413939234e-02  -3.8039160517219138e-02  -3.8085575106479017e-02  -3.8527673444037319e-02  -3.9870219837182627e-02  -4.2471107213910383e-02  -4.7999239795223705e-02  -5.7555268050723037e-02  -7.1681675748957105e-02  -4.2193890155083992e-02  -3.3827809093814755e-02  -6.2408333715518793e-02  -5.3085809094394990e-02  -4.6244088421484829e-02  -4.1524697366385366e-02  -3.8965094516657243e-02  -3.7971692252090496e-02  -3.7572093138809846e-02  -3.7189652450990020e-02  -3.7024064220850118e-02  -3.7428740026320746e-02  -3.8256614075652465e-02  -3.9186240693072846e-02  -3.9604699970950653e-02  -3.7925576716382740e-02  -3.4339366878392445e-02  -3.1303629370144477e-02  -2.9017649463947096e-02  -2.7162746093987413e-02  -2.6676195545146587e-02  -2.7134444140045448e-02  -2.7108564573488141e-02  -2.6550213024533892e-02  -2.6255853134702828e-02  -2.6314837423941910e-02  -2.6429361687699771e-02  -2.6470962560134564e-02  -2.6556795869136899e-02  -2.6802070366103683e-02  -2.7160453379612089e-02  -2.7481401937538227e-02  -2.7703832539518577e-02  -2.8119760186644305e-02  -2.9342632852076025e-02  -3.1640006509020144e-02  -3.4127669879576744e-02  -3.5822731419331663e-02  -3.7170131477612313e-02  -3.8127745920443899e-02  -3.8347913726107630e-02  -3.8248290926996747e-02  -3.8217524335744171e-02  -3.8371670641232716e-02  -3.8694882805247972e-02  -3.9252816750175001e-02  -4.0169265192765424e-02  -4.2111428119504378e-02  -4.6159521562211391e-02  -5.2523307744636358e-02  -6.1550841046687607e-02  -3.6394667981193493e-02  -2.4596096202660889e-02  -4.6827096874438652e-02  -4.3947322463946739e-02  -4.1631898019708291e-02  -3.9586229022663906e-02  -3.8355227495251887e-02  -3.7957696894625713e-02  -3.7962042353854628e-02  -3.7898800451957232e-02  -3.7668608930565513e-02  -3.7607721336058011e-02  -3.8075927025517702e-02  -3.8978909340926529e-02  -3.9828634743834058e-02  -4.0010363519182038e-02  -3.8935317930658367e-02  -3.7050862870102570e-02  -3.5556926717939162e-02  -3.4589010629747348e-02  -3.3725842574665821e-02  -3.3136031383258761e-02  -3.3030692591998735e-02  -3.3078873316219379e-02  -3.3015378551081026e-02  -3.2891245298975871e-02  -3.2779254053171364e-02  -3.2700167188319591e-02  -3.2653935359216700e-02  -3.2701590117063570e-02  -3.2934432990604695e-02  -3.3336345998094388e-02  -