<?xml version="1.0"?>
<VTKFile type="UnstructuredGrid"  version="0.1"  >
<UnstructuredGrid>
<Piece  NumberOfPoints="2601" NumberOfCells="5000">
<Points>
<DataArray  type="Float64"  NumberOfComponents="3"  format="ascii">0 0 0  0.03 0 0  0.06 0 0  0.09 0 0  0.12 0 0  0.15 0 0  0.18 0 0  0.21 0 0  0.24 0 0  0.27 0 0  0.3 0 0  0.33 0 0  0.36 0 0  0.39 0 0  0.42 0 0  0.45 0 0  0.48 0 0  0.51 0 0  0.54 0 0  0.57 0 0  0.6 0 0  0.63 0 0  0.66 0 0  0.6899999999999999 0 0  0.72 0 0  0.75 0 0  0.78 0 0  0.8100000000000001 0 0  0.84 0 0  0.87 0 0  0.9 0 0  0.93 0 0  0.96 0 0  0.99 0 0  1.02 0 0  1.05 0 0  1.08 0 0  1.11 0 0  1.14 0 0  1.17 0 0  1.2 0 0  1.23 0 0  1.26 0 0  1.29 0 0  1.32 0 0  1.35 0 0  1.38 0 0  1.41 0 0  1.44 0 0  1.47 0 0  1.5 0 0  0 0.02 0  0.03 0.02 0  0.06 0.02 0  0.09 0.02 0  0.12 0.02 0  0.15 0.02 0  0.18 0.02 0  0.21 0.02 0  0.24 0.02 0  0.27 0.02 0  0.3 0.02 0  0.33 0.02 0  0.36 0.02 0  0.39 0.02 0  0.42 0.02 0  0.45 0.02 0  0.48 0.02 0  0.51 0.02 0  0.54 0.02 0  0.57 0.02 0  0.6 0.02 0  0.63 0.02 0  0.66 0.02 0  0.6899999999999999 0.02 0  0.72 0.02 0  0.75 0.02 0  0.78 0.02 0  0.8100000000000001 0.02 0  0.84 0.02 0  0.87 0.02 0  0.9 0.02 0  0.93 0.02 0  0.96 0.02 0  0.99 0.02 0  1.02 0.02 0  1.05 0.02 0  1.08 0.02 0  1.11 0.02 0  1.14 0.02 0  1.17 0.02 0  1.2 0.02 0  1.23 0.02 0  1.26 0.02 0  1.29 0.02 0  1.32 0.02 0  1.35 0.02 0  1.38 0.02 0  1.41 0.02 0  1.44 0.02 0  1.47 0.02 0  1.5 0.02 0  0 0.04 0  0.03 0.04 0  0.06 0.04 0  0.09 0.04 0  0.12 0.04 0  0.15 0.04 0  0.18 0.04 0  0.21 0.04 0  0.24 0.04 0  0.27 0.04 0  0.3 0.04 0  0.33 0.04 0  0.36 0.04 0  0.39 0.04 0  0.42 0.04 0  0.45 0.04 0  0.48 0.04 0  0.51 0.04 0  0.54 0.04 0  0.57 0.04 0  0.6 0.04 0  0.63 0.04 0  0.66 0.04 0  0.6899999999999999 0.04 0  0.72 0.04 0  0.75 0.04 0  0.78 0.04 0  0.8100000000000001 0.04 0  0.84 0.04 0  0.87 0.04 0  0.9 0.04 0  0.93 0.04 0  0.96 0.04 0  0.99 0.04 0  1.02 0.04 0  1.05 0.04 0  1.08 0.04 0  1.11 0.04 0  1.14 0.04 0  1.17 0.04 0  1.2 0.04 0  1.23 0.04 0  1.26 0.04 0  1.29 0.04 0  1.32 0.04 0  1.35 0.04 0  1.38 0.04 0  1.41 0.04 0  1.44 0.04 0  1.47 0.04 0  1.5 0.04 0  0 0.06 0  0.03 0.06 0  0.06 0.06 0  0.09 0.06 0  0.12 0.06 0  0.15 0.06 0  0.18 0.06 0  0.21 0.06 0  0.24 0.06 0  0.27 0.06 0  0.3 0.06 0  0.33 0.06 0  0.36 0.06 0  0.39 0.06 0  0.42 0.06 0  0.45 0.06 0  0.48 0.06 0  0.51 0.06 0  0.54 0.06 0  0.57 0.06 0  0.6 0.06 0  0.63 0.06 0  0.66 0.06 0  0.6899999999999999 0.06 0  0.72 0.06 0  0.75 0.06 0  0.78 0.06 0  0.8100000000000001 0.06 0  0.84 0.06 0  0.87 0.06 0  0.9 0.06 0  0.93 0.06 0  0.96 0.06 0  0.99 0.06 0  1.02 0.06 0  1.05 0.06 0  1.08 0.06 0  1.11 0.06 0  1.14 0.06 0  1.17 0.06 0  1.2 0.06 0  1.23 0.06 0  1.26 0.06 0  1.29 0.06 0  1.32 0.06 0  1.35 0.06 0  1.38 0.06 0  1.41 0.06 0  1.44 0.06 0  1.47 0.06 0  1.5 0.06 0  0 0.08 0  0.03 0.08 0  0.06 0.08 0  0.09 0.08 0  0.12 0.08 0  0.15 0.08 0  0.18 0.08 0  0.21 0.08 0  0.24 0.08 0  0.27 0.08 0  0.3 0.08 0  0.33 0.08 0  0.36 0.08 0  0.39 0.08 0  0.42 0.08 0  0.45 0.08 0  0.48 0.08 0  0.51 0.08 0  0.54 0.08 0  0.57 0.08 0  0.6 0.08 0  0.63 0.08 0  0.66 0.08 0  0.6899999999999999 0.08 0  0.72 0.08 0  0.75 0.08 0  0.78 0.08 0  0.8100000000000001 0.08 0  0.84 0.08 0  0.87 0.08 0  0.9 0.08 0  0.93 0.08 0  0.96 0.08 0  0.99 0.08 0  1.02 0.08 0  1.05 0.08 0  1.08 0.08 0  1.11 0.08 0  1.14 0.08 0  1.17 0.08 0  1.2 0.08 0  1.23 0.08 0  1.26 0.08 0  1.29 0.08 0  1.32 0.08 0  1.35 0.08 0  1.38 0.08 0  1.41 0.08 0  1.44 0.08 0  1.47 0.08 0  1.5 0.08 0  0 0.1 0  0.03 0.1 0  0.06 0.1 0  0.09 0.1 0  0.12 0.1 0  0.15 0.1 0  0.18 0.1 0  0.21 0.1 0  0.24 0.1 0  0.27 0.1 0  0.3 0.1 0  0.33 0.1 0  0.36 0.1 0  0.39 0.1 0  0.42 0.1 0  0.45 0.1 0  0.48 0.1 0  0.51 0.1 0  0.54 0.1 0  0.57 0.1 0  0.6 0.1 0  0.63 0.1 0  0.66 0.1 0  0.6899999999999999 0.1 0  0.72 0.1 0  0.75 0.1 0  0.78 0.1 0  0.8100000000000001 0.1 0  0.84 0.1 0  0.87 0.1 0  0.9 0.1 0  0.93 0.1 0  0.96 0.1 0  0.99 0.1 0  1.02 0.1 0  1.05 0.1 0  1.08 0.1 0  1.11 0.1 0  1.14 0.1 0  1.17 0.1 0  1.2 0.1 0  1.23 0.1 0  1.26 0.1 0  1.29 0.1 0  1.32 0.1 0  1.35 0.1 0  1.38 0.1 0  1.41 0.1 0  1.44 0.1 0  1.47 0.1 0  1.5 0.1 0  0 0.12 0  0.03 0.12 0  0.06 0.12 0  0.09 0.12 0  0.12 0.12 0  0.15 0.12 0  0.18 0.12 0  0.21 0.12 0  0.24 0.12 0  0.27 0.12 0  0.3 0.12 0  0.33 0.12 0  0.36 0.12 0  0.39 0.12 0  0.42 0.12 0  0.45 0.12 0  0.48 0.12 0  0.51 0.12 0  0.54 0.12 0  0.57 0.12 0  0.6 0.12 0  0.63 0.12 0  0.66 0.12 0  0.6899999999999999 0.12 0  0.72 0.12 0  0.75 0.12 0  0.78 0.12 0  0.8100000000000001 0.12 0  0.84 0.12 0  0.87 0.12 0  0.9 0.12 0  0.93 0.12 0  0.96 0.12 0  0.99 0.12 0  1.02 0.12 0  1.05 0.12 0  1.08 0.12 0  1.11 0.12 0  1.14 0.12 0  1.17 0.12 0  1.2 0.12 0  1.23 0.12 0  1.26 0.12 0  1.29 0.12 0  1.32 0.12 0  1.35 0.12 0  1.38 0.12 0  1.41 0.12 0  1.44 0.12 0  1.47 0.12 0  1.5 0.12 0  0 0.14 0  0.03 0.14 0  0.06 0.14 0  0.09 0.14 0  0.12 0.14 0  0.15 0.14 0  0.18 0.14 0  0.21 0.14 0  0.24 0.14 0  0.27 0.14 0  0.3 0.14 0  0.33 0.14 0  0.36 0.14 0  0.39 0.14 0  0.42 0.14 0  0.45 0.14 0  0.48 0.14 0  0.51 0.14 0  0.54 0.14 0  0.57 0.14 0  0.6 0.14 0  0.63 0.14 0  0.66 0.14 0  0.6899999999999999 0.14 0  0.72 0.14 0  0.75 0.14 0  0.78 0.14 0  0.8100000000000001 0.14 0  0.84 0.14 0  0.87 0.14 0  0.9 0.14 0  0.93 0.14 0  0.96 0.14 0  0.99 0.14 0  1.02 0.14 0  1.05 0.14 0  1.08 0.14 0  1.11 0.14 0  1.14 0.14 0  1.17 0.14 0  1.2 0.14 0  1.23 0.14 0  1.26 0.14 0  1.29 0.14 0  1.32 0.14 0  1.35 0.14 0  1.38 0.14 0  1.41 0.14 0  1.44 0.14 0  1.47 0.14 0  1.5 0.14 0  0 0.16 0  0.03 0.16 0  0.06 0.16 0  0.09 0.16 0  0.12 0.16 0  0.15 0.16 0  0.18 0.16 0  0.21 0.16 0  0.24 0.16 0  0.27 0.16 0  0.3 0.16 0  0.33 0.16 0  0.36 0.16 0  0.39 0.16 0  0.42 0.16 0  0.45 0.16 0  0.48 0.16 0  0.51 0.16 0  0.54 0.16 0  0.57 0.16 0  0.6 0.16 0  0.63 0.16 0  0.66 0.16 0  0.6899999999999999 0.16 0  0.72 0.16 0  0.75 0.16 0  0.78 0.16 0  0.8100000000000001 0.16 0  0.84 0.16 0  0.87 0.16 0  0.9 0.16 0  0.93 0.16 0  0.96 0.16 0  0.99 0.16 0  1.02 0.16 0  1.05 0.16 0  1.08 0.16 0  1.11 0.16 0  1.14 0.16 0  1.17 0.16 0  1.2 0.16 0  1.23 0.16 0  1.26 0.16 0  1.29 0.16 0  1.32 0.16 0  1.35 0.16 0  1.38 0.16 0  1.41 0.16 0  1.44 0.16 0  1.47 0.16 0  1.5 0.16 0  0 0.18 0  0.03 0.18 0  0.06 0.18 0  0.09 0.18 0  0.12 0.18 0  0.15 0.18 0  0.18 0.18 0  0.21 0.18 0  0.24 0.18 0  0.27 0.18 0  0.3 0.18 0  0.33 0.18 0  0.36 0.18 0  0.39 0.18 0  0.42 0.18 0  0.45 0.18 0  0.48 0.18 0  0.51 0.18 0  0.54 0.18 0  0.57 0.18 0  0.6 0.18 0  0.63 0.18 0  0.66 0.18 0  0.6899999999999999 0.18 0  0.72 0.18 0  0.75 0.18 0  0.78 0.18 0  0.8100000000000001 0.18 0  0.84 0.18 0  0.87 0.18 0  0.9 0.18 0  0.93 0.18 0  0.96 0.18 0  0.99 0.18 0  1.02 0.18 0  1.05 0.18 0  1.08 0.18 0  1.11 0.18 0  1.14 0.18 0  1.17 0.18 0  1.2 0.18 0  1.23 0.18 0  1.26 0.18 0  1.29 0.18 0  1.32 0.18 0  1.35 0.18 0  1.38 0.18 0  1.41 0.18 0  1.44 0.18 0  1.47 0.18 0  1.5 0.18 0  0 0.2 0  0.03 0.2 0  0.06 0.2 0  0.09 0.2 0  0.12 0.2 0  0.15 0.2 0  0.18 0.2 0  0.21 0.2 0  0.24 0.2 0  0.27 0.2 0  0.3 0.2 0  0.33 0.2 0  0.36 0.2 0  0.39 0.2 0  0.42 0.2 0  0.45 0.2 0  0.48 0.2 0  0.51 0.2 0  0.54 0.2 0  0.57 0.2 0  0.6 0.2 0  0.63 0.2 0  0.66 0.2 0  0.6899999999999999 0.2 0  0.72 0.2 0  0.75 0.2 0  0.78 0.2 0  0.8100000000000001 0.2 0  0.84 0.2 0  0.87 0.2 0  0.9 0.2 0  0.93 0.2 0  0.96 0.2 0  0.99 0.2 0  1.02 0.2 0  1.05 0.2 0  1.08 0.2 0  1.11 0.2 0  1.14 0.2 0  1.17 0.2 0  1.2 0.2 0  1.23 0.2 0  1.26 0.2 0  1.29 0.2 0  1.32 0.2 0  1.35 0.2 0  1.38 0.2 0  1.41 0.2 0  1.44 0.2 0  1.47 0.2 0  1.5 0.2 0  0 0.22 0  0.03 0.22 0  0.06 0.22 0  0.09 0.22 0  0.12 0.22 0  0.15 0.22 0  0.18 0.22 0  0.21 0.22 0  0.24 0.22 0  0.27 0.22 0  0.3 0.22 0  0.33 0.22 0  0.36 0.22 0  0.39 0.22 0  0.42 0.22 0  0.45 0.22 0  0.48 0.22 0  0.51 0.22 0  0.54 0.22 0  0.57 0.22 0  0.6 0.22 0  0.63 0.22 0  0.66 0.22 0  0.6899999999999999 0.22 0  0.72 0.22 0  0.75 0.22 0  0.78 0.22 0  0.8100000000000001 0.22 0  0.84 0.22 0  0.87 0.22 0  0.9 0.22 0  0.93 0.22 0  0.96 0.22 0  0.99 0.22 0  1.02 0.22 0  1.05 0.22 0  1.08 0.22 0  1.11 0.22 0  1.14 0.22 0  1.17 0.22 0  1.2 0.22 0  1.23 0.22 0  1.26 0.22 0  1.29 0.22 0  1.32 0.22 0  1.35 0.22 0  1.38 0.22 0  1.41 0.22 0  1.44 0.22 0  1.47 0.22 0  1.5 0.22 0  0 0.24 0  0.03 0.24 0  0.06 0.24 0  0.09 0.24 0  0.12 0.24 0  0.15 0.24 0  0.18 0.24 0  0.21 0.24 0  0.24 0.24 0  0.27 0.24 0  0.3 0.24 0  0.33 0.24 0  0.36 0.24 0  0.39 0.24 0  0.42 0.24 0  0.45 0.24 0  0.48 0.24 0  0.51 0.24 0  0.54 0.24 0  0.57 0.24 0  0.6 0.24 0  0.63 0.24 0  0.66 0.24 0  0.6899999999999999 0.24 0  0.72 0.24 0  0.75 0.24 0  0.78 0.24 0  0.8100000000000001 0.24 0  0.84 0.24 0  0.87 0.24 0  0.9 0.24 0  0.93 0.24 0  0.96 0.24 0  0.99 0.24 0  1.02 0.24 0  1.05 0.24 0  1.08 0.24 0  1.11 0.24 0  1.14 0.24 0  1.17 0.24 0  1.2 0.24 0  1.23 0.24 0  1.26 0.24 0  1.29 0.24 0  1.32 0.24 0  1.35 0.24 0  1.38 0.24 0  1.41 0.24 0  1.44 0.24 0  1.47 0.24 0  1.5 0.24 0  0 0.26 0  0.03 0.26 0  0.06 0.26 0  0.09 0.26 0  0.12 0.26 0  0.15 0.26 0  0.18 0.26 0  0.21 0.26 0  0.24 0.26 0  0.27 0.26 0  0.3 0.26 0  0.33 0.26 0  0.36 0.26 0  0.39 0.26 0  0.42 0.26 0  0.45 0.26 0  0.48 0.26 0  0.51 0.26 0  0.54 0.26 0  0.57 0.26 0  0.6 0.26 0  0.63 0.26 0  0.66 0.26 0  0.6899999999999999 0.26 0  0.72 0.26 0  0.75 0.26 0  0.78 0.26 0  0.8100000000000001 0.26 0  0.84 0.26 0  0.87 0.26 0  0.9 0.26 0  0.93 0.26 0  0.96 0.26 0  0.99 0.26 0  1.02 0.26 0  1.05 0.26 0  1.08 0.26 0  1.11 0.26 0  1.14 0.26 0  1.17 0.26 0  1.2 0.26 0  1.23 0.26 0  1.26 0.26 0  1.29 0.26 0  1.32 0.26 0  1.35 0.26 0  1.38 0.26 0  1.41 0.26 0  1.44 0.26 0  1.47 0.26 0  1.5 0.26 0  0 0.28 0  0.03 0.28 0  0.06 0.28 0  0.09 0.28 0  0.12 0.28 0  0.15 0.28 0  0.18 0.28 0  0.21 0.28 0  0.24 0.28 0  0.27 0.28 0  0.3 0.28 0  0.33 0.28 0  0.36 0.28 0  0.39 0.28 0  0.42 0.28 0  0.45 0.28 0  0.48 0.28 0  0.51 0.28 0  0.54 0.28 0  0.57 0.28 0  0.6 0.28 0  0.63 0.28 0  0.66 0.28 0  0.6899999999999999 0.28 0  0.72 0.28 0  0.75 0.28 0  0.78 0.28 0  0.8100000000000001 0.28 0  0.84 0.28 0  0.87 0.28 0  0.9 0.28 0  0.93 0.28 0  0.96 0.28 0  0.99 0.28 0  1.02 0.28
[...]
<PointData  Scalars="sensitivity"> 
<DataArray  type="Float64"  Name="sensitivity"  format="ascii">-1.3032046458613758e-06  -1.8481325816810541e-05  -7.6978841037868479e-05  -1.9587550778330591e-04  -3.7555207126375561e-04  -5.9342512787586611e-04  -8.1734819595415901e-04  -1.0199462496694152e-03  -1.1850778163421806e-03  -1.3073410334717109e-03  -1.3883005499931399e-03  -1.4330056085581791e-03  -1.4479810938279553e-03  -1.4401438498975183e-03  -1.4160896063087581e-03  -1.3816360798728931e-03  -1.3416203545048859e-03  -1.2998789300336447e-03  -1.2593192155542308e-03  -1.2220323287848711e-03  -1.1894323924329750e-03  -1.1624128533314823e-03  -1.1415013866296825e-03  -1.1269915430946978e-03  -1.1190372963791589e-03  -1.1177096103839165e-03  -1.1230229683642607e-03  -1.1349399813096650e-03  -1.1533553974544350e-03  -1.1780528317885191e-03  -1.2086248092662954e-03  -1.2443527836191136e-03  -1.2840562896665516e-03  -1.3259305645092661e-03  -1.3673936185101738e-03  -1.4049591792499505e-03  -1.4341591947180565e-03  -1.4495584489129818e-03  -1.4449133398808088e-03  -1.4135051592411504e-03  -1.3485726250252593e-03  -1.2440899748474268e-03  -1.0965857259030553e-03  -9.0831461244742537e-04  -6.9102383136860430e-04  -4.6726636601319911e-04  -2.6746657595854236e-04  -1.2071139578714452e-04  -3.8136322909064859e-05  -5.4702800813217565e-06  -5.2659956273349896e-08  -9.3706505628132727e-06  -7.5482853778161850e-05  -3.0060378823606185e-04  -7.8985117941846852e-04  -1.5626342287139653e-03  -2.5320332587662007e-03  -3.5559406547080439e-03  -4.5033002458558426e-03  -5.2905635825858032e-03  -5.8850101051954751e-03  -6.2888643691440625e-03  -6.5224860257978631e-03  -6.6143641071668485e-03  -6.5957967661519259e-03  -6.4973311451016653e-03  -6.3463437030676171e-03  -6.1658622963755893e-03  -5.9743396847658087e-03  -5.7859118989978071e-03  -5.6108657452656830e-03  -5.4562398860909895e-03  -5.3265282026218851e-03  -5.2244066164163216e-03  -5.1513737764983698e-03  -5.1082253726080608e-03  -5.0953458527376568e-03  -5.1128523770920331e-03  -5.1606354683688188e-03  -5.2383118785434019e-03  -5.3450632734883810e-03  -5.4793124203122850e-03  -5.6382092604958557e-03  -5.8169568560824912e-03  -6.0080669399746661e-03  -6.2006495817560261e-03  -6.3798051684145112e-03  -6.5262078321841254e-03  -6.6160438484787181e-03  -6.6216624008357157e-03  -6.5129526729514097e-03  -6.2591770331462526e-03  -5.8316275891642675e-03  -5.2105522313847111e-03  -4.3976661923172252e-03  -3.4341187008738528e-03  -2.4106343168164442e-03  -1.4573740497998053e-03  -7.1360387458064482e-04  -2.6065070770417940e-04  -6.2233919880537274e-05  -3.5983349779844370e-06  -2.7026504962543244e-05  -1.4679045879716275e-04  -4.3675560715450450e-04  -1.0515804999929571e-03  -1.9933142895461071e-03  -3.1424899984404931e-03  -4.3339020603589849e-03  -5.4204954667832917e-03  -6.3123768095827305e-03  -6.9791909982203897e-03  -7.4273789612384483e-03  -7.6806202438015328e-03  -7.7710985592761147e-03  -7.7348270817288447e-03  -7.6073284176907847e-03  -7.4204079230710748e-03  -7.2007351682773718e-03  -6.9696806444471873e-03  -6.7436341475733573e-03  -6.5344849448296218e-03  -6.3502685185371143e-03  -6.1959952276138272e-03  -6.0745526679571648e-03  -5.9875069643537948e-03  -5.9356770727886643e-03  -5.9194637393344008e-03  -5.9389968593458594e-03  -5.9941776267656852e-03  -6.0846428151023159e-03  -6.2096080904590744e-03  -6.3675073876108632e-03  -6.5553745672794431e-03  -6.7680058792229259e-03  -6.9970516688219473e-03  -7.2301841757963989e-03  -7.4504053425497197e-03  -7.6355604061697545e-03  -7.7581972611333967e-03  -7.7864589975073523e-03  -7.6856436552441686e-03  -7.4212996056678398e-03  -6.9601140410465419e-03  -6.2763417675354444e-03  -5.3639908164250152e-03  -4.2617025206414371e-03  -3.0695965306941574e-03  -1.9266533374773724e-03  -9.9284044292869897e-04  -3.9746107669188905e-04  -1.3052179484609189e-04  -1.6345228161764608e-05  -4.4209390961310861e-05  -2.4885712650435799e-04  -6.5005666394275406e-04  -1.4060098433938768e-03  -2.4501967625066914e-03  -3.6398361887802267e-03  -4.8268235645643736e-03  -5.8733396195944252e-03  -6.7056334058082636e-03  -7.3130632210567570e-03  -7.7100205409310080e-03  -7.9189884069830203e-03  -7.9700539015759592e-03  -7.8988837845193928e-03  -7.7412382568957036e-03  -7.5287570309314315e-03  -7.2876686675704518e-03  -7.0389802491484217e-03  -6.7988416320398249e-03  -6.5788646093895243e-03  -6.3866507869479354e-03  -6.2266553492360977e-03  -6.1012254921457981e-03  -6.0115233394736128e-03  -5.9581364759678599e-03  -5.9413668868045734e-03  -5.9613198605713421e-03  -6.0179253609860262e-03  -6.1109386035095789e-03  -6.2398472540268054e-03  -6.4035399180383760e-03  -6.5996311584638210e-03  -6.8234905655938536e-03  -7.0672213687078935e-03  -7.3188112990629850e-03  -7.5615626635367255e-03  -7.7735869419030624e-03  -7.9274425005257561e-03  -7.9910119081573073e-03  -7.9298930596739571e-03  -7.7140181342285428e-03  -7.3103497572937935e-03  -6.6885426673232093e-03  -5.8321619510031657e-03  -4.7610838307264279e-03  -3.5728344610068074e-03  -2.3857014846650933e-03  -1.3304063600086862e-03  -5.7839459115564611e-04  -2.1176411669679581e-04  -3.4252404720238995e-05  -4.1101633238470820e-05  -3.7434620362165075e-04  -1.0704506134991002e-03  -2.1162362441475664e-03  -3.2641495009450381e-03  -4.4341729407764950e-03  -5.5630300660752799e-03  -6.5019724924524061e-03  -7.2106774366804309e-03  -7.7132280046523010e-03  -8.0275690203101876e-03  -8.1675493974990836e-03  -8.1581691164395887e-03  -8.0349873072398936e-03  -7.8341574816084142e-03  -7.5864389257688184e-03  -7.3167623893669424e-03  -7.0452428608598914e-03  -6.7875232314434982e-03  -6.5546972796951038e-03  -6.3535838585231721e-03  -6.1876593738128061e-03  -6.0583527815312585e-03  -5.9661802111330882e-03  -5.9113961002662070e-03  -5.8941834478098525e-03  -5.9146199772800905e-03  -5.9726553765509349e-03  -6.0681825697175337e-03  -6.2010785570015409e-03  -6.3709508620088369e-03  -6.5763814080724578e-03  -6.8137161603871229e-03  -7.0758047857729265e-03  -7.3512251632509226e-03  -7.6240008703818470e-03  -7.8728215903441159e-03  -8.0707392751907126e-03  -8.1853052392920848e-03  -8.1841331084447216e-03  -8.0407441814098896e-03  -7.7279624360216265e-03  -7.2153989180732689e-03  -6.4892412616758379e-03  -5.5063498328642140e-03  -4.3805340914441675e-03  -3.2371064361588230e-03  -2.0497227328851227e-03  -9.5907673871662900e-04  -2.8008508567717359e-04  -4.0925693770585826e-05  -4.5263903507086913e-05  -7.0873371774276672e-04  -2.6708468752737954e-03  -5.0145981355944952e-03  -6.0011943088443967e-03  -6.4042280225969674e-03  -6.9081167929370716e-03  -7.4352919134676350e-03  -7.8885147657120260e-03  -8.2328762926173350e-03  -8.4398102576811532e-03  -8.4897354864048036e-03  -8.3989295991950836e-03  -8.2057624818453780e-03  -7.9479410795448274e-03  -7.6542612317340407e-03  -7.3472820621856821e-03  -7.0459035680356160e-03  -6.7653299514651441e-03  -6.5161243411445456e-03  -6.3040112413083370e-03  -6.1309824820895724e-03  -5.9970914332738417e-03  -5.9019588497021313e-03  -5.8454585615646381e-03  -5.8276969731052798e-03  -5.8487445220138856e-03  -5.9085282070275988e-03  -6.0070329279881115e-03  -6.1446019667542508e-03  -6.3218574681135065e-03  -6.5388333362330709e-03  -6.7933413546216277e-03  -7.0791926973955178e-03  -7.3857116315451535e-03  -7.6975659673431300e-03  -7.9946118507326722e-03  -8.2522805106132000e-03  -8.4351259946846887e-03  -8.5111739274478133e-03  -8.4466988254065650e-03  -8.2992242471598976e-03  -7.9958396701959172e-03  -7.6439207757096582e-03  -7.1944617426597567e-03  -6.8518109576819258e-03  -6.3464486560643194e-03  -4.3720724061460034e-03  -1.8908753824742890e-03  -3.8646641901829301e-04  -2.7470821570957712e-05  -5.9583281130040655e-04  -3.0351409095219105e-03  -1.0714671678675378e-02  -1.9684981805473001e-02  -2.2415238389434277e-02  -1.8589349813998225e-02  -1.3479739491948198e-02  -1.0053683227953690e-02  -8.9594967056800118e-03  -8.9052226790192965e-03  -8.9566012231166985e-03  -8.8924400916921328e-03  -8.6950324906843873e-03  -8.4118638015862855e-03  -8.0835864815132549e-03  -7.7337746261395609e-03  -7.3808329224887420e-03  -7.0423338518199527e-03  -6.7335191655181897e-03  -6.4646362048137096e-03  -6.2399131125373255e-03  -6.0590981181155796e-03  -5.9202217923313488e-03  -5.8217362142592077e-03  -5.7631845553219596e-03  -5.7447490054954630e-03  -5.7665533493284236e-03  -5.8284002156818405e-03  -5.9301990388373983e-03  -6.0727548368926295e-03  -6.2580640862488395e-03  -6.4883128642955713e-03  -6.7635395128174325e-03  -7.0786527101958062e-03  -7.4234793869204767e-03  -7.7830534543582453e-03  -8.1416818560726620e-03  -8.4756492512288364e-03  -8.7415056792950613e-03  -8.9190707839447072e-03  -8.9702313672936334e-03  -9.1870599586824694e-03  -9.5481853771513994e-03  -1.1066536658936489e-02  -1.3773104082357612e-02  -1.7936091983782342e-02  -2.2297957730812661e-02  -2.0295554535871965e-02  -1.1920101517751172e-02  -2.5285950565252140e-03  -9.3250636133663598e-05  -1.8138875569302839e-03  -1.8764040831324668e-02  -3.1479566336737465e-02  -3.1482565783426494e-02  -3.1466973257786482e-02  -3.1478713490817933e-02  -3.1572101353400744e-02  -2.5044233088583973e-02  -1.4414968209132699e-02  -1.0400755088772824e-02  -9.6664505060408377e-03  -9.3943790640934385e-03  -9.0450241145911461e-03  -8.6482001744739353e-03  -8.2378342653304879e-03  -7.8229690352490631e-03  -7.4154388556070564e-03  -7.0320903566883225e-03  -6.6894287252812039e-03  -6.3980210084931552e-03  -6.1599701095258847e-03  -5.9715329360301743e-03  -5.8277492650633915e-03  -5.7256248018984794e-03  -5.6646239028416874e-03  -5.6453551777364032e-03  -5.6681272352940943e-03  -5.7324176612437968e-03  -5.8376596820655467e-03  -5.9849487319438566e-03  -6.1781044770807805e-03  -6.4224827678545831e-03  -6.7216509869856451e-03  -7.0717368016246108e-03  -7.4620093277546944e-03  -7.8789127026135594e-03  -8.3114951892612181e-03  -8.7315284045794816e-03  -9.1309962693155652e-03  -9.4802318984766789e-03  -9.8276378575110832e-03  -1.1639009790422546e-02  -1.5129072981318974e-02  -2.3216649447713105e-02  -3.1265927347142522e-02  -3.1471314864357391e-02  -3.1487705959156821e-02  -3.1490606549244661e-02  -3.1488720052144974e-02  -1.9165782007994941e-02  -1.7578917874297203e-03  -9.4114708719657287e-03  -3.1532208699092110e-02  -3.1528850653929297e-02  -3.1523464665016807e-02  -3.1524519476599101e-02  -3.1530668411416239e-02  -3.1521330752306655e-02  -3.1447795752226788e-02  -3.1566853374018558e-02  -1.9277125722238057e-02  -1.2029009703550902e-02  -1.0156730945242380e-02  -9.4586847090067719e-03  -8.9069859214918438e-03  -8.4078347932029680e-03  -7.9202588689872965e-03  -7.4491493604826450e-03  -7.0120653426802111e-03  -6.6292670226658513e-03  -6.3131445307327604e-03  -6.0624693515758553e-03  -5.8678381734642224e-03  -5.7198130595983504e-03  -5.6137407704482693e-03  -5.5496675031186738e-03  -5.5293108798024054e-03  -5.5534132929356359e-03  -5.6207850086178301e-03  -5.7295432595982944e-03  -5.8805749649021083e-03  -6.0800213904368561e-03  -6.3379500110048613e-03  -6.6640096167109560e-03  -7.0564104317518009e-03  -7.4988440715177927e-03  -7.9831586938527068e-03  -8.4915824645254781e-03  -9.0477038295750517e-03  -9.7031223528396705e-03  -1.0596859527064168e-02  -1.2887804756208373e-02  -1.9239349068598824e-02  -3.1756951061890699e-02  -3.1527391925813060e-02  -3.1504039659654148e-02  -3.1521053478804170e-02  -3.1529867821218763e-02  -3.1524662717093477e-02  -3.1527025477239401e-02  -3.1529229150954872e-02  -7.1427890262535411e-03  -1.5739066935906074e-02  -3.1509494942539885e-02  -3.1518121657454226e-02  -3.1516876991434462e-02  -3.1516972786162334e-02  -3.1520071491401840e-02  -3.1528964621220186e-02  -3.1524154813053401e-02  -3.1503453895254871e-02  -3.1588137982037544e-02  -2.4671611071926686e-02  -1.3793035379118168e-02  -1.0191149601428537e-02  -9.2169768120410004e-03  -8.6002624200439744e-03  -8.0264077711716866e-03  -7.4812164318689275e-03  -6.9788493756008452e-03  -6.5477881628244654e-03  -6.2058600692695507e-03  -5.9455936843862871e-03  -5.7480903635142395e-03  -5.5971487258125443e-03  -5.4864697353604591e-03  -5.4181543861469110e-03  -5.3962447836843272e-03  -5.4223477673836810e-03  -5.4941020510964863e-03  -5.6066565656938206e-03  -5.7595065728673006e-03  -5.9616750960632065e-03  -6.2305843983272921e-03  -6.5855580966906659e-03  -7.0317033749954603e-03  -7.5301573515813370e-03  -8.1032764414297204e-03  -8.7035703951448516e-03  -9.5518141449252719e-03  -1.1209096392680962e-02  -1.4504263223838789e-02  -2.3044908008057273e-02  -3.1392729044249577e-02  -3.1537402409961515e-02  -3.1558408558242906e-02  -3.1517868768037992e-02  -3.1513603425168714e-02  -3.1517425744110671e-02  -3.1519781072451687e-02  -3.1507818831842324e-02  -3.1502849742141105e-02  -1.5758334970177593e-02  -1.8332312277904165e-02  -3.1585156309582252e-02  -3.1503438233658046e-02  -3.1512635857235315e-02  -3.1511490125004350e-02  -3.1510058189404819e-02  -3.1510761200806106e-02  -3.1518477535186773e-02  -3.1535551897083680e-02  -3.1536247373426252e-02  -3.1514495036140608e-02  -3.0489462070904954e-02  -1.5601278829180448e-02  -1.0298692073095580e-02  -8.9329977471141620e-03  -8.1604966912596551e-03  -7.5195036479381843e-03  -6.9310360988926048e-03  -6.4381441322960272e-03  -6.0715189030748525e-03  -5.8082601348983997e-03  -5.6138906479308174e-03  -5.4619415254162709e-03  -5.3448971226393097e-03  -5.2700850891253771e-03  -5.2458702859966349e-03  -5.2751203149415324e-03  -5.3539093175825701e-03  -5.4714687673667380e-03  -5.6230391706712053e-03  -5.8218432737734173e-03  -6.0964109096032339e-03  -6.4785311911763023e-03  -7.0085314004858365e-03  -7.5793368363578813e-03  -8.2989685716432730e-03  -9.1875040381817034e-03  -1.1690925983636816e-02  -1.6365551567975423e-02  -2.7533094489314909e-02  -3.1471344976273831e-02  -3.1534849683268418e-02  -3.1521842400690933e-02  -3.1518520336520701e-02  -3.1514201467247947e-02  -3.1509918928411720e-02  -3.1509039765088634e-02  -3.1512128986681320e-02  -3.1503002822580804e-02  -3.1811487515140666e-02  -1.6623787713461818e-02  -2.8533170404987353e-02  -4.6149792934524161e-02  -3.5632932823126635e-02  -3.1522089694695374e-02  -3.1511505628662451e-02  -3.1509702198742690e-02  -3.1507328944112109e-02  -3.1505969252574768e-02  -3.1513731860394883e-02  -3.1535215773853861e-02  -3.1531962055260924e-02  -3.1448991743949092e-02  -3.1365208919372910e-02  -1.9145200733367930e-02  -1.1397196688160164e-02  -8.7067028806042338e-03  -7.6922301266725114e-03  -6.9113711190465438e-03  -6.3132765862117524e-03  -5.9204751101306439e-03  -5.6604986935957433e-03  -5.4767359885307303e-03  -5.3248304571491207e-03  -5.1964061476311180e-03  -5.1108264279282377e-03  -5.0831488186734736e-03  -5.1170346591960783e-03  -5.2090851749198863e-03  -5.3371714269078909e-03  -5.4851259399662129e-03  -5.6765585151885897e-03  -5.9548065931098512e-03  -6.3697595029567743e-03  -7.0739300789414835e-03  -7.8606450414498551e-03  -9.4072994109796731e-03  -1.2463525887445507e-02  -1.9025338522831056e-02  -3.1516129068270358e-02  -3.1411917471345627e-02  -3.1514809648935070e-02  -3.1513928095295511e-02  -3.1512527161567272e-02  -3.1509640455442654e-02  -3.1508660351631801e-02  -3.1508594959427434e-02  -3.1510276230641177e-02  -3.1529468349179558e-02  -3.7738440401474969e-02  -4.7929348683981063e-02  -2.5076427075876526e-02  -3.5080439801606210e-02  -6.0547384421108942e-02  -4.6020961233210748e-02  -3.5291189189491978e-02  -3.1520400942494385e-02  -3.1513584683186401e-02  -3.1509102671094767e-02  -3.1506084155985166e-02  -3.1503467438606186e-02  -3.1507202948650406e-02  -3.1523928106203442e-02  -3.1524675785087983e-02  -3.1480498722611570e-02  -3.1522956434257725e-02  -2.6672938998595786e-02  -1.5754257534622753e-02  -1.0382479714711514e-02  -7.8640230109606121e-03  -6.6807901432015745e-03  -6.0752310951825983e-03  -5.7182804370212344e-03  -5.4963757547461644e-03  -5.3149914037710555e-03  -5.1525719448817040e-03  -5.0457900006510882e-03  -5.0130731173834405e-03  -5.0558200006727994e-03  -5.1796035421937453e-03  -5.3482208761800893e-03  -5.5325511525465719e-03  -5.7956910802086864e-03  -6.2233807383176671e-03  -6.9570733724769428e-03  -8.7011939003045231e-03  -1.1312331462614041e-02  -1.5531338267276588e-02  -2.5172950986503292e-02  -3.1697406596869378e-02  -3.1550655588274190e-02  -3.1521570793412279e-02  -3.1498177252326814e-02  -3.1506135182630998e-02  -3.1504973385834752e-02  -3.1506550054562953e-02  -3.1510257739406577e-02  -3.1511444633723629e-02  -3.1529287454276321e-02  -3.6359696819508285e-02  -4.6460533758750366e-02  -6.0499777382942405e-02  -3.3666417416820228e-02  -3.4013923238754670e-02  -6.2912943294013646e-02  -5.0482401347474941e-02  -3.9846275643779419e-02  -3.2803722765389037e-02  -3.1517161084381337e-02  -3.1513734861995324e-02  -3.1508816058069176e-02  -3.1504781103875501e-02  -3.1500316032445790e-02  -3.1499872518709310e-02  -3.1516131476119945e-02  -3.1537044474976912e-02  -3.1529090199170363e-02  -3.1491523667255938e-02  -3.1466030848498257e-02  -2.8258113150505401e-02  -1.9380576927247085e-02  -1.4321426234914931e-02  -1.1671524314952381e-02  -1.0073199733376273e-02  -9.1166991255499184e-03  -8.4347242427034556e-03  -7.9627467907558459e-03  -7.7289821042978045e-03  -7.6763631958658828e-03  -7.7846364182926828e-03  -8.1069402574074512e-03  -8.5851441582461743e-03  -9.1849427291256728e-03  -1.0162823653446932e-02  -1.1739981567848274e-02  -1.4214837349785835e-02  -1.8914185820200775e-02  -2.7424589688973790e-02  -3.1556474301826919e-02  -3.1351043266329343e-02  -3.1546858545363245e-02  -3.1554370390648387e-02  -3.1508193713393223e-02  -3.1502880150816141e-02  -3.1502117638989191e-02  -3.1504482865162477e-02  -3.1509979282142907e-02  -3.1512008457767408e-02  -3.1519368197111854e-02  -3.3329052580120463e-02  -3.9793559047465649e-02  -4.9831604026140577e-02  -6.2142430807814779e-02  -3.5179786088435576e-02  -2.5772740937472123e-02  -5.2480720124540525e-02  -4.5934790089398943e-02  -3.9535737509801917e-02  -3.4231110127493088e-02  -3.1534629914933963e-02  -3.1519532731822140e-02  -3.1512976474544971e-02  -3.1507861261313254e-02  -3.1503237684756984e-02  -3.1497628271385303e-02  -3.1496652238372481e-02  -3.1513193386524960e-02  -3.1539488635133527e-02  -3.1544571472119587e-02  -3.1517692145976280e-02  -3.1465144693747032e-02  -3.1452915979192010e-02  -3.1562189437531744e-02  -3.1707917576588675e-02  -3.1376556371610707e-02  -3.1379042499068345e-02  -3.0992221614451209e-02  -2.9804979172746372e-02  -2.8995625944315408e-02  -2.8737580524268582e-02  -2.8950072586190128e-02  -2.9706699197730262e-02  -3.0893487257970531e-02  -3.1382851096103802e-02  -3.1340287063309422e-02  -3.1607404363741369e-02  -3.1659451808067042e-02  -3.1440828994252566e-02  -3.1410075806793558e-02  -3.1547436213608032e-02  -3.1534040149935008e-02  -3.1505559055724622e-02  -3.1512525705228597e-02  -3.1505747598261871e-02  -3.1501428524147071e-02  -3.1503471221004012e-02  -3.1507972556985162e-02  -3.1514692840369583e-02  -3.1512127870427717e-02  -3.1542471267371773e-02  -3.4120089660459263e-02  -3.8779663607539420e-02  -4.4790386098649881e-02  -5.1201402669353732e-02  -2.9052810139460719e-02  -1.6696484758016415e-02  -3.6181150414058970e-02  -3.5931969185375612e-02  -3.4725746805387508e-02  -3.2991402681673880e-02  -3.1564942306893697e-02  -3.1520461821017282e-02  -3.1519379043663948e-02  -3.1512402978589038e-02  -3.1506922325235436e-02  -3.1502416975351964e-02  -3.1497563918673463e-02  -3.1496052093700613e-02  -3.1504718524852864e-02  -3.1521277156878511e-02  -3.1534566460182642e-02  -3.1537059392561566e-02  -3.1533690358096854e-02  -3.1542980009645595e-02  -3.1564488092910799e-02  -3.1538139170405800e-02  -3.1512723087156462e-02  -3.1531450537925165e-02  -3.1517040085616711e-02  -3.1512317357520164e-02  -3.1508691327496105e-02  -3.1508007653867395e-02  -3.1510862217354003e-02  -3.1519149467864715e-02  -3.1536147239132728e-02  -3.1523861234924573e-02  -