<?xml version="1.0"?>
<VTKFile type="UnstructuredGrid"  version="0.1"  >
<UnstructuredGrid>
<Piece  NumberOfPoints="2601" NumberOfCells="5000">
<Points>
<DataArray  type="Float64"  NumberOfComponents="3"  format="ascii">0 0 0  0.03 0 0  0.06 0 0  0.09 0 0  0.12 0 0  0.15 0 0  0.18 0 0  0.21 0 0  0.24 0 0  0.27 0 0  0.3 0 0  0.33 0 0  0.36 0 0  0.39 0 0  0.42 0 0  0.45 0 0  0.48 0 0  0.51 0 0  0.54 0 0  0.57 0 0  0.6 0 0  0.63 0 0  0.66 0 0  0.6899999999999999 0 0  0.72 0 0  0.75 0 0  0.78 0 0  0.8100000000000001 0 0  0.84 0 0  0.87 0 0  0.9 0 0  0.93 0 0  0.96 0 0  0.99 0 0  1.02 0 0  1.05 0 0  1.08 0 0  1.11 0 0  1.14 0 0  1.17 0 0  1.2 0 0  1.23 0 0  1.26 0 0  1.29 0 0  1.32 0 0  1.35 0 0  1.38 0 0  1.41 0 0  1.44 0 0  1.47 0 0  1.5 0 0  0 0.02 0  0.03 0.02 0  0.06 0.02 0  0.09 0.02 0  0.12 0.02 0  0.15 0.02 0  0.18 0.02 0  0.21 0.02 0  0.24 0.02 0  0.27 0.02 0  0.3 0.02 0  0.33 0.02 0  0.36 0.02 0  0.39 0.02 0  0.42 0.02 0  0.45 0.02 0  0.48 0.02 0  0.51 0.02 0  0.54 0.02 0  0.57 0.02 0  0.6 0.02 0  0.63 0.02 0  0.66 0.02 0  0.6899999999999999 0.02 0  0.72 0.02 0  0.75 0.02 0  0.78 0.02 0  0.8100000000000001 0.02 0  0.84 0.02 0  0.87 0.02 0  0.9 0.02 0  0.93 0.02 0  0.96 0.02 0  0.99 0.02 0  1.02 0.02 0  1.05 0.02 0  1.08 0.02 0  1.11 0.02 0  1.14 0.02 0  1.17 0.02 0  1.2 0.02 0  1.23 0.02 0  1.26 0.02 0  1.29 0.02 0  1.32 0.02 0  1.35 0.02 0  1.38 0.02 0  1.41 0.02 0  1.44 0.02 0  1.47 0.02 0  1.5 0.02 0  0 0.04 0  0.03 0.04 0  0.06 0.04 0  0.09 0.04 0  0.12 0.04 0  0.15 0.04 0  0.18 0.04 0  0.21 0.04 0  0.24 0.04 0  0.27 0.04 0  0.3 0.04 0  0.33 0.04 0  0.36 0.04 0  0.39 0.04 0  0.42 0.04 0  0.45 0.04 0  0.48 0.04 0  0.51 0.04 0  0.54 0.04 0  0.57 0.04 0  0.6 0.04 0  0.63 0.04 0  0.66 0.04 0  0.6899999999999999 0.04 0  0.72 0.04 0  0.75 0.04 0  0.78 0.04 0  0.8100000000000001 0.04 0  0.84 0.04 0  0.87 0.04 0  0.9 0.04 0  0.93 0.04 0  0.96 0.04 0  0.99 0.04 0  1.02 0.04 0  1.05 0.04 0  1.08 0.04 0  1.11 0.04 0  1.14 0.04 0  1.17 0.04 0  1.2 0.04 0  1.23 0.04 0  1.26 0.04 0  1.29 0.04 0  1.32 0.04 0  1.35 0.04 0  1.38 0.04 0  1.41 0.04 0  1.44 0.04 0  1.47 0.04 0  1.5 0.04 0  0 0.06 0  0.03 0.06 0  0.06 0.06 0  0.09 0.06 0  0.12 0.06 0  0.15 0.06 0  0.18 0.06 0  0.21 0.06 0  0.24 0.06 0  0.27 0.06 0  0.3 0.06 0  0.33 0.06 0  0.36 0.06 0  0.39 0.06 0  0.42 0.06 0  0.45 0.06 0  0.48 0.06 0  0.51 0.06 0  0.54 0.06 0  0.57 0.06 0  0.6 0.06 0  0.63 0.06 0  0.66 0.06 0  0.6899999999999999 0.06 0  0.72 0.06 0  0.75 0.06 0  0.78 0.06 0  0.8100000000000001 0.06 0  0.84 0.06 0  0.87 0.06 0  0.9 0.06 0  0.93 0.06 0  0.96 0.06 0  0.99 0.06 0  1.02 0.06 0  1.05 0.06 0  1.08 0.06 0  1.11 0.06 0  1.14 0.06 0  1.17 0.06 0  1.2 0.06 0  1.23 0.06 0  1.26 0.06 0  1.29 0.06 0  1.32 0.06 0  1.35 0.06 0  1.38 0.06 0  1.41 0.06 0  1.44 0.06 0  1.47 0.06 0  1.5 0.06 0  0 0.08 0  0.03 0.08 0  0.06 0.08 0  0.09 0.08 0  0.12 0.08 0  0.15 0.08 0  0.18 0.08 0  0.21 0.08 0  0.24 0.08 0  0.27 0.08 0  0.3 0.08 0  0.33 0.08 0  0.36 0.08 0  0.39 0.08 0  0.42 0.08 0  0.45 0.08 0  0.48 0.08 0  0.51 0.08 0  0.54 0.08 0  0.57 0.08 0  0.6 0.08 0  0.63 0.08 0  0.66 0.08 0  0.6899999999999999 0.08 0  0.72 0.08 0  0.75 0.08 0  0.78 0.08 0  0.8100000000000001 0.08 0  0.84 0.08 0  0.87 0.08 0  0.9 0.08 0  0.93 0.08 0  0.96 0.08 0  0.99 0.08 0  1.02 0.08 0  1.05 0.08 0  1.08 0.08 0  1.11 0.08 0  1.14 0.08 0  1.17 0.08 0  1.2 0.08 0  1.23 0.08 0  1.26 0.08 0  1.29 0.08 0  1.32 0.08 0  1.35 0.08 0  1.38 0.08 0  1.41 0.08 0  1.44 0.08 0  1.47 0.08 0  1.5 0.08 0  0 0.1 0  0.03 0.1 0  0.06 0.1 0  0.09 0.1 0  0.12 0.1 0  0.15 0.1 0  0.18 0.1 0  0.21 0.1 0  0.24 0.1 0  0.27 0.1 0  0.3 0.1 0  0.33 0.1 0  0.36 0.1 0  0.39 0.1 0  0.42 0.1 0  0.45 0.1 0  0.48 0.1 0  0.51 0.1 0  0.54 0.1 0  0.57 0.1 0  0.6 0.1 0  0.63 0.1 0  0.66 0.1 0  0.6899999999999999 0.1 0  0.72 0.1 0  0.75 0.1 0  0.78 0.1 0  0.8100000000000001 0.1 0  0.84 0.1 0  0.87 0.1 0  0.9 0.1 0  0.93 0.1 0  0.96 0.1 0  0.99 0.1 0  1.02 0.1 0  1.05 0.1 0  1.08 0.1 0  1.11 0.1 0  1.14 0.1 0  1.17 0.1 0  1.2 0.1 0  1.23 0.1 0  1.26 0.1 0  1.29 0.1 0  1.32 0.1 0  1.35 0.1 0  1.38 0.1 0  1.41 0.1 0  1.44 0.1 0  1.47 0.1 0  1.5 0.1 0  0 0.12 0  0.03 0.12 0  0.06 0.12 0  0.09 0.12 0  0.12 0.12 0  0.15 0.12 0  0.18 0.12 0  0.21 0.12 0  0.24 0.12 0  0.27 0.12 0  0.3 0.12 0  0.33 0.12 0  0.36 0.12 0  0.39 0.12 0  0.42 0.12 0  0.45 0.12 0  0.48 0.12 0  0.51 0.12 0  0.54 0.12 0  0.57 0.12 0  0.6 0.12 0  0.63 0.12 0  0.66 0.12 0  0.6899999999999999 0.12 0  0.72 0.12 0  0.75 0.12 0  0.78 0.12 0  0.8100000000000001 0.12 0  0.84 0.12 0  0.87 0.12 0  0.9 0.12 0  0.93 0.12 0  0.96 0.12 0  0.99 0.12 0  1.02 0.12 0  1.05 0.12 0  1.08 0.12 0  1.11 0.12 0  1.14 0.12 0  1.17 0.12 0  1.2 0.12 0  1.23 0.12 0  1.26 0.12 0  1.29 0.12 0  1.32 0.12 0  1.35 0.12 0  1.38 0.12 0  1.41 0.12 0  1.44 0.12 0  1.47 0.12 0  1.5 0.12 0  0 0.14 0  0.03 0.14 0  0.06 0.14 0  0.09 0.14 0  0.12 0.14 0  0.15 0.14 0  0.18 0.14 0  0.21 0.14 0  0.24 0.14 0  0.27 0.14 0  0.3 0.14 0  0.33 0.14 0  0.36 0.14 0  0.39 0.14 0  0.42 0.14 0  0.45 0.14 0  0.48 0.14 0  0.51 0.14 0  0.54 0.14 0  0.57 0.14 0  0.6 0.14 0  0.63 0.14 0  0.66 0.14 0  0.6899999999999999 0.14 0  0.72 0.14 0  0.75 0.14 0  0.78 0.14 0  0.8100000000000001 0.14 0  0.84 0.14 0  0.87 0.14 0  0.9 0.14 0  0.93 0.14 0  0.96 0.14 0  0.99 0.14 0  1.02 0.14 0  1.05 0.14 0  1.08 0.14 0  1.11 0.14 0  1.14 0.14 0  1.17 0.14 0  1.2 0.14 0  1.23 0.14 0  1.26 0.14 0  1.29 0.14 0  1.32 0.14 0  1.35 0.14 0  1.38 0.14 0  1.41 0.14 0  1.44 0.14 0  1.47 0.14 0  1.5 0.14 0  0 0.16 0  0.03 0.16 0  0.06 0.16 0  0.09 0.16 0  0.12 0.16 0  0.15 0.16 0  0.18 0.16 0  0.21 0.16 0  0.24 0.16 0  0.27 0.16 0  0.3 0.16 0  0.33 0.16 0  0.36 0.16 0  0.39 0.16 0  0.42 0.16 0  0.45 0.16 0  0.48 0.16 0  0.51 0.16 0  0.54 0.16 0  0.57 0.16 0  0.6 0.16 0  0.63 0.16 0  0.66 0.16 0  0.6899999999999999 0.16 0  0.72 0.16 0  0.75 0.16 0  0.78 0.16 0  0.8100000000000001 0.16 0  0.84 0.16 0  0.87 0.16 0  0.9 0.16 0  0.93 0.16 0  0.96 0.16 0  0.99 0.16 0  1.02 0.16 0  1.05 0.16 0  1.08 0.16 0  1.11 0.16 0  1.14 0.16 0  1.17 0.16 0  1.2 0.16 0  1.23 0.16 0  1.26 0.16 0  1.29 0.16 0  1.32 0.16 0  1.35 0.16 0  1.38 0.16 0  1.41 0.16 0  1.44 0.16 0  1.47 0.16 0  1.5 0.16 0  0 0.18 0  0.03 0.18 0  0.06 0.18 0  0.09 0.18 0  0.12 0.18 0  0.15 0.18 0  0.18 0.18 0  0.21 0.18 0  0.24 0.18 0  0.27 0.18 0  0.3 0.18 0  0.33 0.18 0  0.36 0.18 0  0.39 0.18 0  0.42 0.18 0  0.45 0.18 0  0.48 0.18 0  0.51 0.18 0  0.54 0.18 0  0.57 0.18 0  0.6 0.18 0  0.63 0.18 0  0.66 0.18 0  0.6899999999999999 0.18 0  0.72 0.18 0  0.75 0.18 0  0.78 0.18 0  0.8100000000000001 0.18 0  0.84 0.18 0  0.87 0.18 0  0.9 0.18 0  0.93 0.18 0  0.96 0.18 0  0.99 0.18 0  1.02 0.18 0  1.05 0.18 0  1.08 0.18 0  1.11 0.18 0  1.14 0.18 0  1.17 0.18 0  1.2 0.18 0  1.23 0.18 0  1.26 0.18 0  1.29 0.18 0  1.32 0.18 0  1.35 0.18 0  1.38 0.18 0  1.41 0.18 0  1.44 0.18 0  1.47 0.18 0  1.5 0.18 0  0 0.2 0  0.03 0.2 0  0.06 0.2 0  0.09 0.2 0  0.12 0.2 0  0.15 0.2 0  0.18 0.2 0  0.21 0.2 0  0.24 0.2 0  0.27 0.2 0  0.3 0.2 0  0.33 0.2 0  0.36 0.2 0  0.39 0.2 0  0.42 0.2 0  0.45 0.2 0  0.48 0.2 0  0.51 0.2 0  0.54 0.2 0  0.57 0.2 0  0.6 0.2 0  0.63 0.2 0  0.66 0.2 0  0.6899999999999999 0.2 0  0.72 0.2 0  0.75 0.2 0  0.78 0.2 0  0.8100000000000001 0.2 0  0.84 0.2 0  0.87 0.2 0  0.9 0.2 0  0.93 0.2 0  0.96 0.2 0  0.99 0.2 0  1.02 0.2 0  1.05 0.2 0  1.08 0.2 0  1.11 0.2 0  1.14 0.2 0  1.17 0.2 0  1.2 0.2 0  1.23 0.2 0  1.26 0.2 0  1.29 0.2 0  1.32 0.2 0  1.35 0.2 0  1.38 0.2 0  1.41 0.2 0  1.44 0.2 0  1.47 0.2 0  1.5 0.2 0  0 0.22 0  0.03 0.22 0  0.06 0.22 0  0.09 0.22 0  0.12 0.22 0  0.15 0.22 0  0.18 0.22 0  0.21 0.22 0  0.24 0.22 0  0.27 0.22 0  0.3 0.22 0  0.33 0.22 0  0.36 0.22 0  0.39 0.22 0  0.42 0.22 0  0.45 0.22 0  0.48 0.22 0  0.51 0.22 0  0.54 0.22 0  0.57 0.22 0  0.6 0.22 0  0.63 0.22 0  0.66 0.22 0  0.6899999999999999 0.22 0  0.72 0.22 0  0.75 0.22 0  0.78 0.22 0  0.8100000000000001 0.22 0  0.84 0.22 0  0.87 0.22 0  0.9 0.22 0  0.93 0.22 0  0.96 0.22 0  0.99 0.22 0  1.02 0.22 0  1.05 0.22 0  1.08 0.22 0  1.11 0.22 0  1.14 0.22 0  1.17 0.22 0  1.2 0.22 0  1.23 0.22 0  1.26 0.22 0  1.29 0.22 0  1.32 0.22 0  1.35 0.22 0  1.38 0.22 0  1.41 0.22 0  1.44 0.22 0  1.47 0.22 0  1.5 0.22 0  0 0.24 0  0.03 0.24 0  0.06 0.24 0  0.09 0.24 0  0.12 0.24 0  0.15 0.24 0  0.18 0.24 0  0.21 0.24 0  0.24 0.24 0  0.27 0.24 0  0.3 0.24 0  0.33 0.24 0  0.36 0.24 0  0.39 0.24 0  0.42 0.24 0  0.45 0.24 0  0.48 0.24 0  0.51 0.24 0  0.54 0.24 0  0.57 0.24 0  0.6 0.24 0  0.63 0.24 0  0.66 0.24 0  0.6899999999999999 0.24 0  0.72 0.24 0  0.75 0.24 0  0.78 0.24 0  0.8100000000000001 0.24 0  0.84 0.24 0  0.87 0.24 0  0.9 0.24 0  0.93 0.24 0  0.96 0.24 0  0.99 0.24 0  1.02 0.24 0  1.05 0.24 0  1.08 0.24 0  1.11 0.24 0  1.14 0.24 0  1.17 0.24 0  1.2 0.24 0  1.23 0.24 0  1.26 0.24 0  1.29 0.24 0  1.32 0.24 0  1.35 0.24 0  1.38 0.24 0  1.41 0.24 0  1.44 0.24 0  1.47 0.24 0  1.5 0.24 0  0 0.26 0  0.03 0.26 0  0.06 0.26 0  0.09 0.26 0  0.12 0.26 0  0.15 0.26 0  0.18 0.26 0  0.21 0.26 0  0.24 0.26 0  0.27 0.26 0  0.3 0.26 0  0.33 0.26 0  0.36 0.26 0  0.39 0.26 0  0.42 0.26 0  0.45 0.26 0  0.48 0.26 0  0.51 0.26 0  0.54 0.26 0  0.57 0.26 0  0.6 0.26 0  0.63 0.26 0  0.66 0.26 0  0.6899999999999999 0.26 0  0.72 0.26 0  0.75 0.26 0  0.78 0.26 0  0.8100000000000001 0.26 0  0.84 0.26 0  0.87 0.26 0  0.9 0.26 0  0.93 0.26 0  0.96 0.26 0  0.99 0.26 0  1.02 0.26 0  1.05 0.26 0  1.08 0.26 0  1.11 0.26 0  1.14 0.26 0  1.17 0.26 0  1.2 0.26 0  1.23 0.26 0  1.26 0.26 0  1.29 0.26 0  1.32 0.26 0  1.35 0.26 0  1.38 0.26 0  1.41 0.26 0  1.44 0.26 0  1.47 0.26 0  1.5 0.26 0  0 0.28 0  0.03 0.28 0  0.06 0.28 0  0.09 0.28 0  0.12 0.28 0  0.15 0.28 0  0.18 0.28 0  0.21 0.28 0  0.24 0.28 0  0.27 0.28 0  0.3 0.28 0  0.33 0.28 0  0.36 0.28 0  0.39 0.28 0  0.42 0.28 0  0.45 0.28 0  0.48 0.28 0  0.51 0.28 0  0.54 0.28 0  0.57 0.28 0  0.6 0.28 0  0.63 0.28 0  0.66 0.28 0  0.6899999999999999 0.28 0  0.72 0.28 0  0.75 0.28 0  0.78 0.28 0  0.8100000000000001 0.28 0  0.84 0.28 0  0.87 0.28 0  0.9 0.28 0  0.93 0.28 0  0.96 0.28 0  0.99 0.28 0  1.02 0.28
[...]
<PointData  Scalars="sensitivity"> 
<DataArray  type="Float64"  Name="sensitivity"  format="ascii">-1.3042999423104019e-06  -1.8495266144385571e-05  -7.7026031198079741e-05  -1.9596697450032194e-04  -3.7567552016543276e-04  -5.9355247600278809e-04  -8.1746499985187063e-04  -1.0200604416749901e-03  -1.1852064577721865e-03  -1.3075009179927186e-03  -1.3885005719907445e-03  -1.4332376286609531e-03  -1.4482192915559217e-03  -1.4403554136195582e-03  -1.4162477128015175e-03  -1.3817266091713518e-03  -1.3416415101270302e-03  -1.2998375583567708e-03  -1.2592269590573117e-03  -1.2219025238770556e-03  -1.1892776542498120e-03  -1.1622434204677768e-03  -1.1413243925395566e-03  -1.1268111362254948e-03  -1.1188552831394472e-03  -1.1175262879136103e-03  -1.1228379602854818e-03  -1.1347530239137174e-03  -1.1531670701532886e-03  -1.1778651658305300e-03  -1.2084415615596677e-03  -1.2441790873311991e-03  -1.2838976676400136e-03  -1.3257918599274986e-03  -1.3672786020645540e-03  -1.4048708292876395e-03  -1.4340987600969582e-03  -1.4495206974359306e-03  -1.4448806054387089e-03  -1.4134501471460318e-03  -1.3484932340706267e-03  -1.2440621862137566e-03  -1.0967391727955726e-03  -9.0867591315267995e-04  -6.9145480776716759e-04  -4.6761202006313291e-04  -2.6767733698246441e-04  -1.2081452757069304e-04  -3.8173370690209202e-05  -5.4761414381872694e-06  -5.2719351820118356e-08  -9.3789590134710467e-06  -7.5542140546633199e-05  -3.0079494182756256e-04  -7.9023909147786476e-04  -1.5631826000693063e-03  -2.5326120692010265e-03  -3.5564692277008530e-03  -4.5038064269486006e-03  -5.2911216421014061e-03  -5.8856998206255808e-03  -6.2897419965021167e-03  -6.5235346045321432e-03  -6.6154759847805149e-03  -6.5968174428196009e-03  -6.4981247506936280e-03  -6.3468320617142216e-03  -6.1660273824168110e-03  -5.9742071294244204e-03  -5.7855326284378351e-03  -5.6103011603772738e-03  -5.4555500803707500e-03  -5.3257633471107835e-03  -5.2236026141577602e-03  -5.1505521827534236e-03  -5.1073961221201388e-03  -5.0945110841927538e-03  -5.1120103290850953e-03  -5.1597841418798505e-03  -5.2374524816771965e-03  -5.3442033000221222e-03  -5.4784675173942862e-03  -5.6374023489710488e-03  -5.8162138321694061e-03  -6.0074110696562259e-03  -6.2000987458908884e-03  -6.3793739464690176e-03  -6.5259067226032834e-03  -6.6158627819337401e-03  -6.6215341079416106e-03  -6.5127397004011815e-03  -6.2587899335073442e-03  -5.8313052937073260e-03  -5.2109544659702097e-03  -4.3991542096029007e-03  -3.4361565504762537e-03  -2.4123958013169073e-03  -1.4585043778565267e-03  -7.1419214324793001e-04  -2.6089435117129621e-04  -6.2300742886188569e-05  -3.6024392539884032e-06  -2.7053534086987716e-05  -1.4691346312651656e-04  -4.3703383094049607e-04  -1.0520968740155379e-03  -1.9940033786703440e-03  -3.1431378807641117e-03  -4.3344450608196515e-03  -5.4210263635623857e-03  -6.3129832742915351e-03  -6.9799661178328431e-03  -7.4284153823098806e-03  -7.6819095498045671e-03  -7.7724911305854525e-03  -7.7361064555723546e-03  -7.6083143158410553e-03  -7.4210067722002959e-03  -7.2009329894799105e-03  -6.9695150894257662e-03  -6.7431711801647001e-03  -6.5338023868515725e-03  -6.3494419647052019e-03  -6.1950867248882508e-03  -6.0736051477124162e-03  -5.9865447717525081e-03  -5.9347100910495465e-03  -5.9184924689005530e-03  -5.9380171979717946e-03  -5.9931852078292580e-03  -6.0836371781316208e-03  -6.2085968351728374e-03  -6.3665093439208096e-03  -6.5544192171328565e-03  -6.7671269520105737e-03  -6.9962777628198710e-03  -7.2295343806687215e-03  -7.4498958244665764e-03  -7.6352125414037349e-03  -7.7580249573756766e-03  -7.7863922368990104e-03  -7.6854768687228897e-03  -7.4207214979977393e-03  -6.9592410495703458e-03  -6.2763199818830192e-03  -5.3657973209970886e-03  -4.2645148164764529e-03  -3.0719953552414974e-03  -1.9281323648208857e-03  -9.9361634448178176e-04  -3.9782449120445717e-04  -1.3067118326839472e-04  -1.6365180723606219e-05  -4.4264790892797056e-05  -2.4908203860477126e-04  -6.5044940664221848e-04  -1.4066753853758237e-03  -2.4510282459615485e-03  -3.6403762532755566e-03  -4.8271691098040670e-03  -5.8737657154270730e-03  -6.7061659311038538e-03  -7.3137820040148427e-03  -7.7110991164479944e-03  -7.9204429211204661e-03  -7.9716670770621501e-03  -7.9003516402889988e-03  -7.7423370440189935e-03  -7.5293969347175861e-03  -7.2878568648915270e-03  -7.0387725956210772e-03  -6.7983179641109125e-03  -6.5781160439473537e-03  -6.3857647691497477e-03  -6.2257009978897862e-03  -6.1002470879480582e-03  -6.0105427241584760e-03  -5.9571594914027805e-03  -5.9403897522755265e-03  -5.9603343435144012e-03  -6.0169231698832485e-03  -6.1099157232953174e-03  -6.2388091190090263e-03  -6.4025068782055444e-03  -6.5986393315613781e-03  -6.8225822829269559e-03  -7.0664288851232382e-03  -7.3181485250715089e-03  -7.5610385120076637e-03  -7.7732384447757206e-03  -7.9273386064764497e-03  -7.9911271249619928e-03  -7.9299914892735236e-03  -7.7132643221991051e-03  -7.3084029698967171e-03  -6.6871733655876862e-03  -5.8341948576485858e-03  -4.7651052415147452e-03  -3.5760615846099761e-03  -2.3874570207817283e-03  -1.3312957277336194e-03  -5.7887791251994675e-04  -2.1203198255722016e-04  -3.4301249898662868e-05  -4.1174233922029190e-05  -3.7466226489912938e-04  -1.0709355681479799e-03  -2.1170944466945888e-03  -3.2653937557938204e-03  -4.4341850011125989e-03  -5.5628641635910572e-03  -6.5023075934273044e-03  -7.2110912888350854e-03  -7.7137871519179198e-03  -8.0286824697223744e-03  -8.1692801560796918e-03  -8.1601491329049008e-03  -8.0367461188032407e-03  -7.8354093729270397e-03  -7.5871205956609565e-03  -7.3169249556989399e-03  -7.0449688742960275e-03  -6.7869095161485118e-03  -6.5538541231086158e-03  -6.3526174013917467e-03  -6.1866489989810336e-03  -6.0573430714557126e-03  -5.9651876428532214e-03  -5.9104197168434944e-03  -5.8932129757464733e-03  -5.9136411612739654e-03  -5.9716541616548881e-03  -6.0671492316490593e-03  -6.2000139391488636e-03  -6.3698763825158341e-03  -6.5753443732241368e-03  -6.8127752188169898e-03  -7.0749999345289423e-03  -7.3505577569382653e-03  -7.6234546540182649e-03  -7.8724492032039087e-03  -8.0706997604899373e-03  -8.1857492784830656e-03  -8.1848372207076574e-03  -8.0401798328288091e-03  -7.7242701224481663e-03  -7.2101309002295059e-03  -6.4916420796431182e-03  -5.5132348972917848e-03  -4.3852704994838477e-03  -3.2389789781761239e-03  -2.0505228200710418e-03  -9.5963775675783289e-04  -2.8045506211596410e-04  -4.1004514170151438e-05  -4.5285941499764155e-05  -7.0892914441311500e-04  -2.6698996484042416e-03  -5.0120674615090482e-03  -5.9999774774891811e-03  -6.4002956028598960e-03  -6.9065449413405850e-03  -7.4358512575049135e-03  -7.8887043936690920e-03  -8.2330072698926747e-03  -8.4409421146244522e-03  -8.4919550762998213e-03  -8.4015294963948935e-03  -8.2079624435324929e-03  -7.9493852986681802e-03  -7.6549738383769467e-03  -7.3473974053731008e-03  -7.0455342074072346e-03  -6.7645867671411626e-03  -6.5151450507722891e-03  -6.3029326618830456e-03  -6.1298988536210210e-03  -5.9960448407856285e-03  -5.9009558440895199e-03  -5.8444880819713396e-03  -5.8267400987576431e-03  -5.8477791866083139e-03  -5.9075328371735797e-03  -6.0059896469055463e-03  -6.1435026157363381e-03  -6.3207218576337492e-03  -6.5377268356288983e-03  -6.7923540721609461e-03  -7.0783818347527573e-03  -7.3850544601633678e-03  -7.6969863997830290e-03  -7.9941430702943593e-03  -8.2522097254206974e-03  -8.4360734784877413e-03  -8.5128870619801660e-03  -8.4483496130118817e-03  -8.2921292553202377e-03  -7.9806812416774210e-03  -7.6446737553981688e-03  -7.2042900734814470e-03  -6.8529795147709823e-03  -6.3417650997535293e-03  -4.3693989280811311e-03  -1.8911319233084060e-03  -3.8675586245041747e-04  -2.7536051822297733e-05  -5.9554827410065732e-04  -3.0374900288584485e-03  -1.0714742852349699e-02  -1.9673450806331177e-02  -2.2405899185858332e-02  -1.8558060595613830e-02  -1.3456469778126040e-02  -1.0053588263829740e-02  -8.9585147636320854e-03  -8.9042052004020128e-03  -8.9577388649048559e-03  -8.8955542092592713e-03  -8.6986872063464851e-03  -8.4147016689821580e-03  -8.0852236872899358e-03  -7.7344735429263900e-03  -7.3808729249885364e-03  -7.0418391874493011e-03  -6.7325964907491605e-03  -6.4634652123938150e-03  -6.2386839753979162e-03  -6.0579252590895142e-03  -5.9191369182821883e-03  -5.8207281313791704e-03  -5.7622283842283161e-03  -5.7438154187391425e-03  -5.7656108638687500e-03  -5.8274183176915189e-03  -5.9291498276189958e-03  -6.0716133696962172e-03  -6.2568392937261252e-03  -6.4870973960126739e-03  -6.7624852266749379e-03  -7.0778526907784040e-03  -7.4228797916361042e-03  -7.7824486379089678e-03  -8.1409521747739001e-03  -8.4753081610801622e-03  -8.7430103148554567e-03  -8.9219974586633999e-03  -8.9791789194714131e-03  -9.1751519052037933e-03  -9.5148520879738650e-03  -1.1075276201919660e-02  -1.3787727970350916e-02  -1.7904589480873954e-02  -2.2260677987205983e-02  -2.0275027913575681e-02  -1.1913876045932376e-02  -2.5281998552138872e-03  -9.3177060007392141e-05  -1.8125848285930402e-03  -1.8758571492643407e-02  -3.1514874715476988e-02  -3.1514529669430240e-02  -3.1518176966722732e-02  -3.1522586719583072e-02  -3.1506861076374619e-02  -2.5008378943238083e-02  -1.4394863125928602e-02  -1.0396201294416985e-02  -9.6674500160029951e-03  -9.3991277706290573e-03  -9.0505099408933112e-03  -8.6519012917550507e-03  -8.2395483124332539e-03  -7.8235497049422877e-03  -7.4153825381345160e-03  -7.0314517121619884e-03  -6.6882597122926461e-03  -6.3965777039403744e-03  -6.1585434101772427e-03  -5.9702606026634216e-03  -5.8266326464602967e-03  -5.7246224956159428e-03  -5.6636945351065185e-03  -5.6444581815884342e-03  -5.6672204955705366e-03  -5.7314605497280615e-03  -5.8366155060025349e-03  -5.9837640904174504e-03  -6.1767505688867033e-03  -6.4210899257532593e-03  -6.7204949555967801e-03  -7.0709803360360793e-03  -7.4615841261399174e-03  -7.8783412890802533e-03  -8.3102589751110588e-03  -8.7304247998852315e-03  -9.1323707093260032e-03  -9.4839958932742725e-03  -9.8501007161931019e-03  -1.1603846123027669e-02  -1.5068342772546262e-02  -2.3213242276170776e-02  -3.1536361503554711e-02  -3.1522518527330436e-02  -3.1515220836667392e-02  -3.1520126409630568e-02  -3.1528141541180429e-02  -1.9162910638320495e-02  -1.7579354111047728e-03  -9.4176210380972711e-03  -3.1518173760984751e-02  -3.1520954573988777e-02  -3.1520734687442112e-02  -3.1520794420303914e-02  -3.1522030002233525e-02  -3.1521589997417020e-02  -3.1527181971318700e-02  -3.1482595564301531e-02  -1.9233012958166956e-02  -1.2023890790243649e-02  -1.0163451214252455e-02  -9.4673461075704436e-03  -8.9116452796675506e-03  -8.4092031408017926e-03  -7.9205311459684680e-03  -7.4490286459937454e-03  -7.0113054235942922e-03  -6.6277517996925443e-03  -6.3112989085420488e-03  -6.0607893023750803e-03  -5.8664721307882910e-03  -5.7186840186660825e-03  -5.6127609448019620e-03  -5.5487813481583069e-03  -5.5284675677417542e-03  -5.5525598711922714e-03  -5.6198660291944006e-03  -5.7285247794853361e-03  -5.8793672162806114e-03  -6.0784838468559100e-03  -6.3362536932302536e-03  -6.6626837188970096e-03  -7.0557538915147168e-03  -7.4988106043474461e-03  -7.9828666497641469e-03  -8.4896553683524549e-03  -9.0442966134017654e-03  -9.7031623439341411e-03  -1.0595792237765675e-02  -1.2915385228322857e-02  -1.9207968207585812e-02  -3.1411984600028676e-02  -3.1516712081835770e-02  -3.1519693674731931e-02  -3.1522445001405427e-02  -3.1520807205722617e-02  -3.1520885591222972e-02  -3.1521390911980217e-02  -3.1521258882368446e-02  -7.1382986853060380e-03  -1.5759655060114876e-02  -3.1521470095326340e-02  -3.1519644158217675e-02  -3.1519688052229350e-02  -3.1519781480118407e-02  -3.1519954016722487e-02  -3.1520502961077668e-02  -3.1521415210489179e-02  -3.1516535280081338e-02  -3.1520216691426253e-02  -2.4612771623016394e-02  -1.3784558524331251e-02  -1.0201967853903227e-02  -9.2214670428301272e-03  -8.6000974942466828e-03  -8.0261348157176157e-03  -7.4812250751478101e-03  -6.9780988485220689e-03  -6.5457499826664430e-03  -6.2033777745826389e-03  -5.9436064100922541e-03  -5.7466767150926891e-03  -5.5960439926952179e-03  -5.4855322783487837e-03  -5.4173304445874378e-03  -5.3954776582688475e-03  -5.4215702489162840e-03  -5.4932300999256762e-03  -5.6056946213268828e-03  -5.7583553572062365e-03  -5.9598867671521250e-03  -6.2283314395515160e-03  -6.5839248645148500e-03  -7.0312831821684914e-03  -7.5307555430135101e-03  -8.1041558352947726e-03  -8.7006549561708477e-03  -9.5426194544962137e-03  -1.1202153140383704e-02  -1.4495523213255767e-02  -2.3025797265424298e-02  -3.1524359718200383e-02  -3.1502656206166296e-02  -3.1517286001297905e-02  -3.1520391785399331e-02  -3.1519026462209783e-02  -3.1519656027710230e-02  -3.1519382139486581e-02  -3.1519193339178353e-02  -3.1518916575331291e-02  -1.5758957752559522e-02  -1.8326211768306622e-02  -3.1539981125600081e-02  -3.1521051129954430e-02  -3.1521483488043955e-02  -3.1520652245129455e-02  -3.1519785509475907e-02  -3.1519213143015097e-02  -3.1519425527903891e-02  -3.1519640651826282e-02  -3.1513602480852207e-02  -3.1503453819586136e-02  -3.0470713722583774e-02  -1.5589591966297771e-02  -1.0290211217011212e-02  -8.9282605616926164e-03  -8.1596169518288325e-03  -7.5201170833169538e-03  -6.9307025718166231e-03  -6.4352213936052166e-03  -6.0679268349716027e-03  -5.8059702723118117e-03  -5.6125699527421521e-03  -5.4609100491034837e-03  -5.3440157913934886e-03  -5.2693439295493048e-03  -5.2452103529340918e-03  -5.2744397511135773e-03  -5.3531025027707783e-03  -5.4705597983654508e-03  -5.6221616445985521e-03  -5.8197874362673268e-03  -6.0930579396643800e-03  -6.4763285701459582e-03  -7.0086916144479292e-03  -7.5802416384365742e-03  -8.3034816637238187e-03  -9.1830466376113667e-03  -1.1661642984582844e-02  -1.6354431842662061e-02  -2.7503570590754457e-02  -3.1510297483135261e-02  -3.1521617585614829e-02  -3.1519173275212496e-02  -3.1516716590723116e-02  -3.1519534438634200e-02  -3.1520688873998247e-02  -3.1521220318737476e-02  -3.1521105405500724e-02  -3.1522321094564557e-02  -3.1811885442841074e-02  -1.6625162140434215e-02  -2.8533047146001064e-02  -4.6138536697893702e-02  -3.5624934472645274e-02  -3.1523143735276031e-02  -3.1521451072729738e-02  -3.1521361348419305e-02  -3.1520188450122548e-02  -3.1518946672842489e-02  -3.1518720645635497e-02  -3.1520210383809415e-02  -3.1518453884683863e-02  -3.1527657412388894e-02  -3.1501882188020566e-02  -1.9093562917901621e-02  -1.1371530166757233e-02  -8.7039563049993510e-03  -7.6937074351510577e-03  -6.9127018244938294e-03  -6.3086278124135807e-03  -5.9147384284720965e-03  -5.6582107564912294e-03  -5.4758415469146129e-03  -5.3238861504362658e-03  -5.1955739262762989e-03  -5.1101959328171583e-03  -5.0826360616981784e-03  -5.1164753032973886e-03  -5.2084362214388892e-03  -5.3359948004592641e-03  -5.4851950363740921e-03  -5.6745292794216501e-03  -5.9489303002848090e-03  -6.3664651831635694e-03  -7.0755337100885801e-03  -7.8597043629991346e-03  -9.4154271796244478e-03  -1.2439066859993372e-02  -1.8959878632651427e-02  -3.1425658028267384e-02  -3.1528392993350161e-02  -3.1522502927215174e-02  -3.1519112946937607e-02  -3.1518513610269791e-02  -3.1519236400890091e-02  -3.1520684904568608e-02  -3.1521470442828950e-02  -3.1521271491492198e-02  -3.1523366326641884e-02  -3.7739324858920113e-02  -4.7930891652483779e-02  -2.5075476802723169e-02  -3.5080407351478902e-02  -6.0546934981151601e-02  -4.6019671225959638e-02  -3.5288586900029804e-02  -3.1522510190583559e-02  -3.1522109671128104e-02  -3.1521540777120202e-02  -3.1520475348309540e-02  -3.1518878882893571e-02  -3.1518395728653469e-02  -3.1520485201660210e-02  -3.1520803921669262e-02  -3.1512463246848019e-02  -3.1509337028706549e-02  -2.6601192634434567e-02  -1.5723409060896112e-02  -1.0374223493135734e-02  -7.8684001782866608e-03  -6.6736872263315900e-03  -6.0656643619485260e-03  -5.7172457533456395e-03  -5.4965393368781703e-03  -5.3140163531740919e-03  -5.1518140942234062e-03  -5.0453460864467821e-03  -5.0127598253436028e-03  -5.0554699274509615e-03  -5.1793262161638869e-03  -5.3459582263197516e-03  -5.5347823771332086e-03  -5.7943438328665470e-03  -6.2125926029343729e-03  -6.9515871208695379e-03  -8.7017237237133459e-03  -1.1290927026785655e-02  -1.5547600351889158e-02  -2.5140411118807798e-02  -3.1539857460627256e-02  -3.1493289413167563e-02  -3.1517010477580841e-02  -3.1519633534929335e-02  -3.1519006947436180e-02  -3.1519732999916526e-02  -3.1520676144444378e-02  -3.1521307776176261e-02  -3.1521242835810030e-02  -3.1523415604860876e-02  -3.6357331825810309e-02  -4.6458503415628599e-02  -6.0499531486078437e-02  -3.3666364563852851e-02  -3.4014057405610594e-02  -6.2913818996274948e-02  -5.0483575545464635e-02  -3.9846370792155181e-02  -3.2802283787550623e-02  -3.1522397195061926e-02  -3.1522060542736645e-02  -3.1521739091744584e-02  -3.1520685256163472e-02  -3.1518981008638848e-02  -3.1518244592523573e-02  -3.1519744577383477e-02  -3.1519439340341571e-02  -3.1514817631979629e-02  -3.1523089369248178e-02  -3.1500962886063487e-02  -2.8239313531307954e-02  -1.9376103995558586e-02  -1.4288211334679295e-02  -1.1659147164561678e-02  -1.0086376086620712e-02  -9.1176174413652236e-03  -8.4340200910038056e-03  -7.9632989133225189e-03  -7.7294819933339566e-03  -7.6767144848347742e-03  -7.7851142857672858e-03  -8.1081104853078789e-03  -8.5791995378088886e-03  -9.1973821284324353e-03  -1.0166739694516048e-02  -1.1705742160472297e-02  -1.4202849530876808e-02  -1.8933758731314216e-02  -2.7376042504127417e-02  -3.1513890057190637e-02  -3.1536811489160217e-02  -3.1524629804594848e-02  -3.1519177361086864e-02  -3.1514069112252588e-02  -3.1518265276821084e-02  -3.1520162004755874e-02  -3.1520929762591479e-02  -3.1521664055399870e-02  -3.1521915666180983e-02  -3.1522363597153338e-02  -3.3329149192816661e-02  -3.9793255579045977e-02  -4.9833375695466586e-02  -6.2143495622460777e-02  -3.5179887469245573e-02  -2.5773087046524326e-02  -5.2483050808935311e-02  -4.5938846541727404e-02  -3.9539570511655228e-02  -3.4225417577323614e-02  -3.1524425906035186e-02  -3.1522650310333959e-02  -3.1521919394152359e-02  -3.1521893229156134e-02  -3.1520912221246276e-02  -3.1519176167694771e-02  -3.1517848389548339e-02  -3.1518670428501316e-02  -3.1521015232652293e-02  -3.1521004443289119e-02  -3.1516400064005627e-02  -3.1513860779862631e-02  -3.1534363488526382e-02  -3.1499594660926319e-02  -3.1522223311966628e-02  -3.1460936697238553e-02  -3.1403762117299346e-02  -3.0986104299269752e-02  -2.9813541502843242e-02  -2.9005165638219595e-02  -2.8746015719009785e-02  -2.8958506404053619e-02  -2.9715221181895447e-02  -3.0887355647910248e-02  -3.1377738177465753e-02  -3.1448385464807049e-02  -3.1517098370606046e-02  -3.1528717400465131e-02  -3.1509664614784022e-02  -3.1512260957966831e-02  -3.1511916206473131e-02  -3.1523923755993166e-02  -3.1521906367523167e-02  -3.1517900431146502e-02  -3.1518006290848041e-02  -3.1519784526470564e-02  -3.1521343675481261e-02  -3.1521551417758913e-02  -3.1522048429722206e-02  -3.1522114468021084e-02  -3.1525906835361057e-02  -3.4121109972208838e-02  -3.8784215680427996e-02  -4.4794895320663483e-02  -5.1203813155740359e-02  -2.9053069680578743e-02  -1.6698248785399213e-02  -3.6184341641862239e-02  -3.5935871871407586e-02  -3.4728784603178277e-02  -3.2988004402322288e-02  -3.1530015946621873e-02  -3.1522393415765224e-02  -3.1522116048827806e-02  -3.1522023825902690e-02  -3.1522031880783535e-02  -3.1521112992899739e-02  -3.1519333638760354e-02  -3.1517623317042075e-02  -3.1517590888648916e-02  -3.1519191324192862e-02  -3.1520523059176186e-02  -3.1520775776308761e-02  -3.1523312043825025e-02  -3.1522280364156774e-02  -3.1520535600136797e-02  -3.1520760860215276e-02  -3.1515555317255986e-02  -3.1520342088532112e-02  -3.1521584721607557e-02  -3.1518406487037180e-02  -3.1515774339729359e-02  -3.1516872842876957e-02  -3.1520704414347747e-02  -3.1523453849164787e-02  -3.1520064947683342e-02  -3.1515001352207452e-02  -