<?xml version="1.0"?>
<VTKFile type="UnstructuredGrid"  version="0.1"  >
<UnstructuredGrid>
<Piece  NumberOfPoints="2601" NumberOfCells="5000">
<Points>
<DataArray  type="Float64"  NumberOfComponents="3"  format="ascii">0 0 0  0.03 0 0  0.06 0 0  0.09 0 0  0.12 0 0  0.15 0 0  0.18 0 0  0.21 0 0  0.24 0 0  0.27 0 0  0.3 0 0  0.33 0 0  0.36 0 0  0.39 0 0  0.42 0 0  0.45 0 0  0.48 0 0  0.51 0 0  0.54 0 0  0.57 0 0  0.6 0 0  0.63 0 0  0.66 0 0  0.6899999999999999 0 0  0.72 0 0  0.75 0 0  0.78 0 0  0.8100000000000001 0 0  0.84 0 0  0.87 0 0  0.9 0 0  0.93 0 0  0.96 0 0  0.99 0 0  1.02 0 0  1.05 0 0  1.08 0 0  1.11 0 0  1.14 0 0  1.17 0 0  1.2 0 0  1.23 0 0  1.26 0 0  1.29 0 0  1.32 0 0  1.35 0 0  1.38 0 0  1.41 0 0  1.44 0 0  1.47 0 0  1.5 0 0  0 0.02 0  0.03 0.02 0  0.06 0.02 0  0.09 0.02 0  0.12 0.02 0  0.15 0.02 0  0.18 0.02 0  0.21 0.02 0  0.24 0.02 0  0.27 0.02 0  0.3 0.02 0  0.33 0.02 0  0.36 0.02 0  0.39 0.02 0  0.42 0.02 0  0.45 0.02 0  0.48 0.02 0  0.51 0.02 0  0.54 0.02 0  0.57 0.02 0  0.6 0.02 0  0.63 0.02 0  0.66 0.02 0  0.6899999999999999 0.02 0  0.72 0.02 0  0.75 0.02 0  0.78 0.02 0  0.8100000000000001 0.02 0  0.84 0.02 0  0.87 0.02 0  0.9 0.02 0  0.93 0.02 0  0.96 0.02 0  0.99 0.02 0  1.02 0.02 0  1.05 0.02 0  1.08 0.02 0  1.11 0.02 0  1.14 0.02 0  1.17 0.02 0  1.2 0.02 0  1.23 0.02 0  1.26 0.02 0  1.29 0.02 0  1.32 0.02 0  1.35 0.02 0  1.38 0.02 0  1.41 0.02 0  1.44 0.02 0  1.47 0.02 0  1.5 0.02 0  0 0.04 0  0.03 0.04 0  0.06 0.04 0  0.09 0.04 0  0.12 0.04 0  0.15 0.04 0  0.18 0.04 0  0.21 0.04 0  0.24 0.04 0  0.27 0.04 0  0.3 0.04 0  0.33 0.04 0  0.36 0.04 0  0.39 0.04 0  0.42 0.04 0  0.45 0.04 0  0.48 0.04 0  0.51 0.04 0  0.54 0.04 0  0.57 0.04 0  0.6 0.04 0  0.63 0.04 0  0.66 0.04 0  0.6899999999999999 0.04 0  0.72 0.04 0  0.75 0.04 0  0.78 0.04 0  0.8100000000000001 0.04 0  0.84 0.04 0  0.87 0.04 0  0.9 0.04 0  0.93 0.04 0  0.96 0.04 0  0.99 0.04 0  1.02 0.04 0  1.05 0.04 0  1.08 0.04 0  1.11 0.04 0  1.14 0.04 0  1.17 0.04 0  1.2 0.04 0  1.23 0.04 0  1.26 0.04 0  1.29 0.04 0  1.32 0.04 0  1.35 0.04 0  1.38 0.04 0  1.41 0.04 0  1.44 0.04 0  1.47 0.04 0  1.5 0.04 0  0 0.06 0  0.03 0.06 0  0.06 0.06 0  0.09 0.06 0  0.12 0.06 0  0.15 0.06 0  0.18 0.06 0  0.21 0.06 0  0.24 0.06 0  0.27 0.06 0  0.3 0.06 0  0.33 0.06 0  0.36 0.06 0  0.39 0.06 0  0.42 0.06 0  0.45 0.06 0  0.48 0.06 0  0.51 0.06 0  0.54 0.06 0  0.57 0.06 0  0.6 0.06 0  0.63 0.06 0  0.66 0.06 0  0.6899999999999999 0.06 0  0.72 0.06 0  0.75 0.06 0  0.78 0.06 0  0.8100000000000001 0.06 0  0.84 0.06 0  0.87 0.06 0  0.9 0.06 0  0.93 0.06 0  0.96 0.06 0  0.99 0.06 0  1.02 0.06 0  1.05 0.06 0  1.08 0.06 0  1.11 0.06 0  1.14 0.06 0  1.17 0.06 0  1.2 0.06 0  1.23 0.06 0  1.26 0.06 0  1.29 0.06 0  1.32 0.06 0  1.35 0.06 0  1.38 0.06 0  1.41 0.06 0  1.44 0.06 0  1.47 0.06 0  1.5 0.06 0  0 0.08 0  0.03 0.08 0  0.06 0.08 0  0.09 0.08 0  0.12 0.08 0  0.15 0.08 0  0.18 0.08 0  0.21 0.08 0  0.24 0.08 0  0.27 0.08 0  0.3 0.08 0  0.33 0.08 0  0.36 0.08 0  0.39 0.08 0  0.42 0.08 0  0.45 0.08 0  0.48 0.08 0  0.51 0.08 0  0.54 0.08 0  0.57 0.08 0  0.6 0.08 0  0.63 0.08 0  0.66 0.08 0  0.6899999999999999 0.08 0  0.72 0.08 0  0.75 0.08 0  0.78 0.08 0  0.8100000000000001 0.08 0  0.84 0.08 0  0.87 0.08 0  0.9 0.08 0  0.93 0.08 0  0.96 0.08 0  0.99 0.08 0  1.02 0.08 0  1.05 0.08 0  1.08 0.08 0  1.11 0.08 0  1.14 0.08 0  1.17 0.08 0  1.2 0.08 0  1.23 0.08 0  1.26 0.08 0  1.29 0.08 0  1.32 0.08 0  1.35 0.08 0  1.38 0.08 0  1.41 0.08 0  1.44 0.08 0  1.47 0.08 0  1.5 0.08 0  0 0.1 0  0.03 0.1 0  0.06 0.1 0  0.09 0.1 0  0.12 0.1 0  0.15 0.1 0  0.18 0.1 0  0.21 0.1 0  0.24 0.1 0  0.27 0.1 0  0.3 0.1 0  0.33 0.1 0  0.36 0.1 0  0.39 0.1 0  0.42 0.1 0  0.45 0.1 0  0.48 0.1 0  0.51 0.1 0  0.54 0.1 0  0.57 0.1 0  0.6 0.1 0  0.63 0.1 0  0.66 0.1 0  0.6899999999999999 0.1 0  0.72 0.1 0  0.75 0.1 0  0.78 0.1 0  0.8100000000000001 0.1 0  0.84 0.1 0  0.87 0.1 0  0.9 0.1 0  0.93 0.1 0  0.96 0.1 0  0.99 0.1 0  1.02 0.1 0  1.05 0.1 0  1.08 0.1 0  1.11 0.1 0  1.14 0.1 0  1.17 0.1 0  1.2 0.1 0  1.23 0.1 0  1.26 0.1 0  1.29 0.1 0  1.32 0.1 0  1.35 0.1 0  1.38 0.1 0  1.41 0.1 0  1.44 0.1 0  1.47 0.1 0  1.5 0.1 0  0 0.12 0  0.03 0.12 0  0.06 0.12 0  0.09 0.12 0  0.12 0.12 0  0.15 0.12 0  0.18 0.12 0  0.21 0.12 0  0.24 0.12 0  0.27 0.12 0  0.3 0.12 0  0.33 0.12 0  0.36 0.12 0  0.39 0.12 0  0.42 0.12 0  0.45 0.12 0  0.48 0.12 0  0.51 0.12 0  0.54 0.12 0  0.57 0.12 0  0.6 0.12 0  0.63 0.12 0  0.66 0.12 0  0.6899999999999999 0.12 0  0.72 0.12 0  0.75 0.12 0  0.78 0.12 0  0.8100000000000001 0.12 0  0.84 0.12 0  0.87 0.12 0  0.9 0.12 0  0.93 0.12 0  0.96 0.12 0  0.99 0.12 0  1.02 0.12 0  1.05 0.12 0  1.08 0.12 0  1.11 0.12 0  1.14 0.12 0  1.17 0.12 0  1.2 0.12 0  1.23 0.12 0  1.26 0.12 0  1.29 0.12 0  1.32 0.12 0  1.35 0.12 0  1.38 0.12 0  1.41 0.12 0  1.44 0.12 0  1.47 0.12 0  1.5 0.12 0  0 0.14 0  0.03 0.14 0  0.06 0.14 0  0.09 0.14 0  0.12 0.14 0  0.15 0.14 0  0.18 0.14 0  0.21 0.14 0  0.24 0.14 0  0.27 0.14 0  0.3 0.14 0  0.33 0.14 0  0.36 0.14 0  0.39 0.14 0  0.42 0.14 0  0.45 0.14 0  0.48 0.14 0  0.51 0.14 0  0.54 0.14 0  0.57 0.14 0  0.6 0.14 0  0.63 0.14 0  0.66 0.14 0  0.6899999999999999 0.14 0  0.72 0.14 0  0.75 0.14 0  0.78 0.14 0  0.8100000000000001 0.14 0  0.84 0.14 0  0.87 0.14 0  0.9 0.14 0  0.93 0.14 0  0.96 0.14 0  0.99 0.14 0  1.02 0.14 0  1.05 0.14 0  1.08 0.14 0  1.11 0.14 0  1.14 0.14 0  1.17 0.14 0  1.2 0.14 0  1.23 0.14 0  1.26 0.14 0  1.29 0.14 0  1.32 0.14 0  1.35 0.14 0  1.38 0.14 0  1.41 0.14 0  1.44 0.14 0  1.47 0.14 0  1.5 0.14 0  0 0.16 0  0.03 0.16 0  0.06 0.16 0  0.09 0.16 0  0.12 0.16 0  0.15 0.16 0  0.18 0.16 0  0.21 0.16 0  0.24 0.16 0  0.27 0.16 0  0.3 0.16 0  0.33 0.16 0  0.36 0.16 0  0.39 0.16 0  0.42 0.16 0  0.45 0.16 0  0.48 0.16 0  0.51 0.16 0  0.54 0.16 0  0.57 0.16 0  0.6 0.16 0  0.63 0.16 0  0.66 0.16 0  0.6899999999999999 0.16 0  0.72 0.16 0  0.75 0.16 0  0.78 0.16 0  0.8100000000000001 0.16 0  0.84 0.16 0  0.87 0.16 0  0.9 0.16 0  0.93 0.16 0  0.96 0.16 0  0.99 0.16 0  1.02 0.16 0  1.05 0.16 0  1.08 0.16 0  1.11 0.16 0  1.14 0.16 0  1.17 0.16 0  1.2 0.16 0  1.23 0.16 0  1.26 0.16 0  1.29 0.16 0  1.32 0.16 0  1.35 0.16 0  1.38 0.16 0  1.41 0.16 0  1.44 0.16 0  1.47 0.16 0  1.5 0.16 0  0 0.18 0  0.03 0.18 0  0.06 0.18 0  0.09 0.18 0  0.12 0.18 0  0.15 0.18 0  0.18 0.18 0  0.21 0.18 0  0.24 0.18 0  0.27 0.18 0  0.3 0.18 0  0.33 0.18 0  0.36 0.18 0  0.39 0.18 0  0.42 0.18 0  0.45 0.18 0  0.48 0.18 0  0.51 0.18 0  0.54 0.18 0  0.57 0.18 0  0.6 0.18 0  0.63 0.18 0  0.66 0.18 0  0.6899999999999999 0.18 0  0.72 0.18 0  0.75 0.18 0  0.78 0.18 0  0.8100000000000001 0.18 0  0.84 0.18 0  0.87 0.18 0  0.9 0.18 0  0.93 0.18 0  0.96 0.18 0  0.99 0.18 0  1.02 0.18 0  1.05 0.18 0  1.08 0.18 0  1.11 0.18 0  1.14 0.18 0  1.17 0.18 0  1.2 0.18 0  1.23 0.18 0  1.26 0.18 0  1.29 0.18 0  1.32 0.18 0  1.35 0.18 0  1.38 0.18 0  1.41 0.18 0  1.44 0.18 0  1.47 0.18 0  1.5 0.18 0  0 0.2 0  0.03 0.2 0  0.06 0.2 0  0.09 0.2 0  0.12 0.2 0  0.15 0.2 0  0.18 0.2 0  0.21 0.2 0  0.24 0.2 0  0.27 0.2 0  0.3 0.2 0  0.33 0.2 0  0.36 0.2 0  0.39 0.2 0  0.42 0.2 0  0.45 0.2 0  0.48 0.2 0  0.51 0.2 0  0.54 0.2 0  0.57 0.2 0  0.6 0.2 0  0.63 0.2 0  0.66 0.2 0  0.6899999999999999 0.2 0  0.72 0.2 0  0.75 0.2 0  0.78 0.2 0  0.8100000000000001 0.2 0  0.84 0.2 0  0.87 0.2 0  0.9 0.2 0  0.93 0.2 0  0.96 0.2 0  0.99 0.2 0  1.02 0.2 0  1.05 0.2 0  1.08 0.2 0  1.11 0.2 0  1.14 0.2 0  1.17 0.2 0  1.2 0.2 0  1.23 0.2 0  1.26 0.2 0  1.29 0.2 0  1.32 0.2 0  1.35 0.2 0  1.38 0.2 0  1.41 0.2 0  1.44 0.2 0  1.47 0.2 0  1.5 0.2 0  0 0.22 0  0.03 0.22 0  0.06 0.22 0  0.09 0.22 0  0.12 0.22 0  0.15 0.22 0  0.18 0.22 0  0.21 0.22 0  0.24 0.22 0  0.27 0.22 0  0.3 0.22 0  0.33 0.22 0  0.36 0.22 0  0.39 0.22 0  0.42 0.22 0  0.45 0.22 0  0.48 0.22 0  0.51 0.22 0  0.54 0.22 0  0.57 0.22 0  0.6 0.22 0  0.63 0.22 0  0.66 0.22 0  0.6899999999999999 0.22 0  0.72 0.22 0  0.75 0.22 0  0.78 0.22 0  0.8100000000000001 0.22 0  0.84 0.22 0  0.87 0.22 0  0.9 0.22 0  0.93 0.22 0  0.96 0.22 0  0.99 0.22 0  1.02 0.22 0  1.05 0.22 0  1.08 0.22 0  1.11 0.22 0  1.14 0.22 0  1.17 0.22 0  1.2 0.22 0  1.23 0.22 0  1.26 0.22 0  1.29 0.22 0  1.32 0.22 0  1.35 0.22 0  1.38 0.22 0  1.41 0.22 0  1.44 0.22 0  1.47 0.22 0  1.5 0.22 0  0 0.24 0  0.03 0.24 0  0.06 0.24 0  0.09 0.24 0  0.12 0.24 0  0.15 0.24 0  0.18 0.24 0  0.21 0.24 0  0.24 0.24 0  0.27 0.24 0  0.3 0.24 0  0.33 0.24 0  0.36 0.24 0  0.39 0.24 0  0.42 0.24 0  0.45 0.24 0  0.48 0.24 0  0.51 0.24 0  0.54 0.24 0  0.57 0.24 0  0.6 0.24 0  0.63 0.24 0  0.66 0.24 0  0.6899999999999999 0.24 0  0.72 0.24 0  0.75 0.24 0  0.78 0.24 0  0.8100000000000001 0.24 0  0.84 0.24 0  0.87 0.24 0  0.9 0.24 0  0.93 0.24 0  0.96 0.24 0  0.99 0.24 0  1.02 0.24 0  1.05 0.24 0  1.08 0.24 0  1.11 0.24 0  1.14 0.24 0  1.17 0.24 0  1.2 0.24 0  1.23 0.24 0  1.26 0.24 0  1.29 0.24 0  1.32 0.24 0  1.35 0.24 0  1.38 0.24 0  1.41 0.24 0  1.44 0.24 0  1.47 0.24 0  1.5 0.24 0  0 0.26 0  0.03 0.26 0  0.06 0.26 0  0.09 0.26 0  0.12 0.26 0  0.15 0.26 0  0.18 0.26 0  0.21 0.26 0  0.24 0.26 0  0.27 0.26 0  0.3 0.26 0  0.33 0.26 0  0.36 0.26 0  0.39 0.26 0  0.42 0.26 0  0.45 0.26 0  0.48 0.26 0  0.51 0.26 0  0.54 0.26 0  0.57 0.26 0  0.6 0.26 0  0.63 0.26 0  0.66 0.26 0  0.6899999999999999 0.26 0  0.72 0.26 0  0.75 0.26 0  0.78 0.26 0  0.8100000000000001 0.26 0  0.84 0.26 0  0.87 0.26 0  0.9 0.26 0  0.93 0.26 0  0.96 0.26 0  0.99 0.26 0  1.02 0.26 0  1.05 0.26 0  1.08 0.26 0  1.11 0.26 0  1.14 0.26 0  1.17 0.26 0  1.2 0.26 0  1.23 0.26 0  1.26 0.26 0  1.29 0.26 0  1.32 0.26 0  1.35 0.26 0  1.38 0.26 0  1.41 0.26 0  1.44 0.26 0  1.47 0.26 0  1.5 0.26 0  0 0.28 0  0.03 0.28 0  0.06 0.28 0  0.09 0.28 0  0.12 0.28 0  0.15 0.28 0  0.18 0.28 0  0.21 0.28 0  0.24 0.28 0  0.27 0.28 0  0.3 0.28 0  0.33 0.28 0  0.36 0.28 0  0.39 0.28 0  0.42 0.28 0  0.45 0.28 0  0.48 0.28 0  0.51 0.28 0  0.54 0.28 0  0.57 0.28 0  0.6 0.28 0  0.63 0.28 0  0.66 0.28 0  0.6899999999999999 0.28 0  0.72 0.28 0  0.75 0.28 0  0.78 0.28 0  0.8100000000000001 0.28 0  0.84 0.28 0  0.87 0.28 0  0.9 0.28 0  0.93 0.28 0  0.96 0.28 0  0.99 0.28 0  1.02 0.28
[...]
<PointData  Scalars="sensitivity"> 
<DataArray  type="Float64"  Name="sensitivity"  format="ascii">-1.3045069738382134e-06  -1.8499236964305376e-05  -7.7047514276759290e-05  -1.9602614440675307e-04  -3.7578480624647767e-04  -5.9370200963859200e-04  -8.1761079386413131e-04  -1.0201429553390905e-03  -1.1851933959555090e-03  -1.3074069357938991e-03  -1.3883694986329563e-03  -1.4331114189159982e-03  -1.4481188608631722e-03  -1.4402806418972001e-03  -1.4161886294883604e-03  -1.3816743689358982e-03  -1.3415934327588477e-03  -1.2997968133828144e-03  -1.2591997619262672e-03  -1.2218950042941121e-03  -1.1892935120476331e-03  -1.1622830116971639e-03  -1.1413853796203607e-03  -1.1268900190570404e-03  -1.1189486530171708e-03  -1.1176309965102544e-03  -1.1229502869994769e-03  -1.1348677500335842e-03  -1.1532776617963029e-03  -1.1779657461212115e-03  -1.2085302201855679e-03  -1.2442611716739545e-03  -1.2839874778865406e-03  -1.3259109600938152e-03  -1.3674485815389945e-03  -1.4051002254827892e-03  -1.4343689463996458e-03  -1.4497793393650940e-03  -1.4450479838701343e-03  -1.4134384361129942e-03  -1.3482469861252292e-03  -1.2436160570584356e-03  -1.0962169569974966e-03  -9.0822342429950731e-04  -6.9117452456259987e-04  -4.6751591171794918e-04  -2.6769169177761547e-04  -1.2085196109063405e-04  -3.8193190242589834e-05  -5.4796516705316229e-06  -5.2756178585885089e-08  -9.3801904569908275e-06  -7.5557275907315449e-05  -3.0087901421739678e-04  -7.9048114990165565e-04  -1.5636490537705120e-03  -2.5332886843051662e-03  -3.5571799007126570e-03  -4.5042645633374496e-03  -5.2911374473935315e-03  -5.8853072920561564e-03  -6.2891379942073000e-03  -6.5229301044402773e-03  -6.6149889378042627e-03  -6.5964588039855946e-03  -6.4978481941406086e-03  -6.3465903075704561e-03  -6.1658014073608857e-03  -5.9740076981392980e-03  -5.7853879464760099e-03  -5.6102418078019687e-03  -5.4555967739060027e-03  -5.3259209203946395e-03  -5.2238618068380744e-03  -5.1508968337717585e-03  -5.1078101409827723e-03  -5.0949804663096079e-03  -5.1125196274580233e-03  -5.1603111552163952e-03  -5.2379671389973159e-03  -5.3446751065973751e-03  -5.4788805793531984e-03  -5.6377719036734900e-03  -5.8165970361221129e-03  -6.0079045114499732e-03  -6.2008120014837515e-03  -6.3803724891289383e-03  -6.5271406615318829e-03  -6.6171258745744508e-03  -6.6224771251385348e-03  -6.5129448073347335e-03  -6.2579143658995058e-03  -5.8293895005595625e-03  -5.2085172140728152e-03  -4.3968843727408471e-03  -3.4346063180798899e-03  -2.4117449658686784e-03  -1.4584847508508335e-03  -7.1437194533012776e-04  -2.6101952537817269e-04  -6.2340803126991346e-05  -3.6049799330854882e-06  -2.7054637538704550e-05  -1.4693988873101520e-04  -4.3717014629013752e-04  -1.0524433474425848e-03  -1.9946215047216731e-03  -3.1440468708447866e-03  -4.3354001473919464e-03  -5.4215933181491413e-03  -6.3129134129989457e-03  -6.9793575882391313e-03  -7.4275774226765425e-03  -7.6811358689770669e-03  -7.7719180902457398e-03  -7.7357151113830024e-03  -7.6080182694820081e-03  -7.4207344411601536e-03  -7.2006609547259947e-03  -6.9692623059777721e-03  -6.7429789870878656e-03  -6.5337141990162604e-03  -6.3494866590539933e-03  -6.1952698598079954e-03  -6.0739119915479501e-03  -5.9869521970609694e-03  -5.9351979496431650e-03  -5.9190465474046709e-03  -5.9386228209690299e-03  -5.9938172025666651e-03  -6.0842556754407574e-03  -6.2091566348503411e-03  -6.3669815841169760e-03  -6.5548152574624223e-03  -6.7675150199691288e-03  -6.9967859616889483e-03  -7.2303246073871699e-03  -7.4510874560359533e-03  -7.6367746494211469e-03  -7.7597154103918875e-03  -7.7877685014463502e-03  -7.6859978012925323e-03  -7.4197981309626062e-03  -6.9567940770268594e-03  -6.2730955045672597e-03  -5.3627123865492487e-03  -4.2623085428804743e-03  -3.0710255898503936e-03  -1.9280921381598789e-03  -9.9388689659860637e-04  -3.9803117019549124e-04  -1.3076476799528966e-04  -1.6377711596543269e-05  -4.4258398804625922e-05  -2.4912427053409039e-04  -6.5070996493558724e-04  -1.4072136941610614e-03  -2.4517868399463968e-03  -3.6415896459094060e-03  -4.8284480292208843e-03  -5.8743780481395466e-03  -6.7058468826854652e-03  -7.3128040126356963e-03  -7.7099584991079731e-03  -7.9195313490590721e-03  -7.9711017691685114e-03  -7.9000307544672028e-03  -7.7421007140423895e-03  -7.5291426650045557e-03  -7.2875642454551222e-03  -7.0384770955535846e-03  -6.7980792787727595e-03  -6.5779938640517918e-03  -6.3857976941496964e-03  -6.2258933273083416e-03  -6.1005739868916367e-03  -6.0109706601816368e-03  -5.9576651201315072e-03  -5.9409638729284635e-03  -5.9609701987226810e-03  -6.0175977923803328e-03  -6.1105790441214310e-03  -6.2393952295692707e-03  -6.4029658986642680e-03  -6.5989710022158823e-03  -6.8228584797440017e-03  -7.0668077988840661e-03  -7.3188626802175019e-03  -7.5622994188215154e-03  -7.7750691955812759e-03  -7.9294712260533848e-03  -7.9930495798342660e-03  -7.9311012614811487e-03  -7.7125670966272184e-03  -7.3053631173677384e-03  -6.6830698398526265e-03  -5.8302033477903971e-03  -4.7619955696713342e-03  -3.5746114271502476e-03  -2.3874190694948482e-03  -1.3317366067372670e-03  -5.7921904483346893e-04  -2.1220854838624310e-04  -3.4332176814742097e-05  -4.1145099324306937e-05  -3.7475784171013679e-04  -1.0715844399536978e-03  -2.1181007761912258e-03  -3.2660285124102130e-03  -4.4360522408068417e-03  -5.5648347072354033e-03  -6.5029161750871497e-03  -7.2102456689329139e-03  -7.7121293863951770e-03  -8.0270343156963429e-03  -8.1681847372897850e-03  -8.1596540987328992e-03  -8.0365795764170255e-03  -7.8352843997868942e-03  -7.5868959976960419e-03  -7.3165974430500005e-03  -7.0446044758736975e-03  -6.7865960610202494e-03  -6.5536772186775049e-03  -6.3526327647485366e-03  -6.1868582119234752e-03  -6.0577015423072221e-03  -5.9656421918117064e-03  -5.9109418667687265e-03  -5.8938041110364811e-03  -5.9143113667496378e-03  -5.9723881547525297e-03  -6.0678815209110979e-03  -6.2006426010293931e-03  -6.3703152990656261e-03  -6.5755736329287159e-03  -6.8128656931666616e-03  -7.0751434779368618e-03  -7.3510978501381526e-03  -7.6247759648622564e-03  -7.8746790934140169e-03  -8.0735006325255588e-03  -8.1885550645741986e-03  -8.1869427778047642e-03  -8.0402890056228069e-03  -7.7199416812088030e-03  -7.2045775281653554e-03  -6.4864047217352283e-03  -5.5083216872363555e-03  -4.3827622682299774e-03  -3.2390686971093562e-03  -2.0514409242291822e-03  -9.6026099336798596e-04  -2.8071790476232012e-04  -4.1052347061272868e-05  -4.5308761718794255e-05  -7.0956591901802780e-04  -2.6720424994644107e-03  -5.0134564678695473e-03  -5.9974937104479674e-03  -6.4016935091746607e-03  -6.9088860637435698e-03  -7.4359771483511906e-03  -7.8867778746464657e-03  -8.2301572841605719e-03  -8.4384764046120039e-03  -8.4906573468845649e-03  -8.4012498720469116e-03  -8.2080940578972954e-03  -7.9494395340147551e-03  -7.6547806121514033e-03  -7.3470055831821668e-03  -7.0450612159244259e-03  -6.7641569096684607e-03  -6.5148826719838718e-03  -6.3029248509554152e-03  -6.1301426472344387e-03  -5.9964576653540958e-03  -5.9014482930616185e-03  -5.8450240041576082e-03  -5.8273412889413498e-03  -5.8484882328201206e-03  -5.9083542704598006e-03  -6.0068363046782043e-03  -6.1442102530330986e-03  -6.3211444569085942e-03  -6.5378180895929007e-03  -6.7921743966431608e-03  -7.0781400958709866e-03  -7.3852490859343438e-03  -7.6983276725664579e-03  -7.9969594922959190e-03  -8.2559991764776051e-03  -8.4401639683422697e-03  -8.5162631758221342e-03  -8.4516229580167222e-03  -8.2847383223068581e-03  -7.9725307148932247e-03  -7.6389851782529628e-03  -7.1968530082639056e-03  -6.8481356107165216e-03  -6.3420307288742242e-03  -4.3715706314055467e-03  -1.8924800660789437e-03  -3.8706099101607606e-04  -2.7574685269400710e-05  -5.9607618988473333e-04  -3.0328436509718644e-03  -1.0714781028806145e-02  -1.9687859003911949e-02  -2.2398878486559005e-02  -1.8558393423797510e-02  -1.3458306359992053e-02  -1.0047422052495725e-02  -8.9544064291739826e-03  -8.8992656713579883e-03  -8.9539758258816195e-03  -8.8941387109120196e-03  -8.6989439255996948e-03  -8.4153782652794870e-03  -8.0855404749563438e-03  -7.7342899215276156e-03  -7.3803661485045266e-03  -7.0412044306303774e-03  -6.7319913046115804e-03  -6.4630693334277707e-03  -6.2386470866074789e-03  -6.0582386747276215e-03  -5.9196437959012881e-03  -5.8212730039562182e-03  -5.7627657386194412e-03  -5.7444046407003849e-03  -5.7663529837574936e-03  -5.8283639671473757e-03  -5.9301850211918748e-03  -6.0724621134452070e-03  -6.2572572299713714e-03  -6.4870146745852645e-03  -6.7619454563785158e-03  -7.0770130557060483e-03  -7.4224044181470166e-03  -7.7836790919829472e-03  -8.1446621351167880e-03  -8.4805815465802872e-03  -8.7486583276149485e-03  -8.9267679203631888e-03  -8.9909361368800678e-03  -9.1637026140238276e-03  -9.5053592044038373e-03  -1.1072585306586892e-02  -1.3777465014275427e-02  -1.7912844582210499e-02  -2.2279246213424950e-02  -2.0281103709899162e-02  -1.1915919967489306e-02  -2.5290323533301799e-03  -9.3163247613267661e-05  -1.8112566084265399e-03  -1.8741734669914741e-02  -3.1462874773631001e-02  -3.1537269924054825e-02  -3.1555591040039709e-02  -3.1526905949704954e-02  -3.1620857772002013e-02  -2.5013973862416168e-02  -1.4384262257518909e-02  -1.0387669339969707e-02  -9.6617248720436387e-03  -9.3979889040155962e-03  -9.0519651681091814e-03  -8.6535224383545214e-03  -8.2402014125002344e-03  -7.8232956069683550e-03  -7.4146791889120661e-03  -7.0305942248804236e-03  -6.6873969945331017e-03  -6.3959653333188491e-03  -6.1584692905629424e-03  -5.9707132753432065e-03  -5.8273040581798240e-03  -5.7252376657422922e-03  -5.6642031177407473e-03  -5.6449873215357006e-03  -5.6679671379191330e-03  -5.7325761102987585e-03  -5.8379651282933140e-03  -5.9848599049707792e-03  -6.1771769174709095e-03  -6.4207881767943450e-03  -6.7195391464485279e-03  -7.0692684209729484e-03  -7.4598097598009049e-03  -7.8791091308433817e-03  -8.3154790647310683e-03  -8.7380371188983293e-03  -9.1396998950551318e-03  -9.4892852268802248e-03  -9.8772835376144692e-03  -1.1571410180661119e-02  -1.5042113324310205e-02  -2.3252627566330394e-02  -3.1456012645687086e-02  -3.1487247040360329e-02  -3.1583365872419916e-02  -3.1565409540030460e-02  -3.1530449779746866e-02  -1.9158535509038933e-02  -1.7579633124258222e-03  -9.4193886658291912e-03  -3.1505373782919045e-02  -3.1506081215830574e-02  -3.1508236656498233e-02  -3.1505776265665905e-02  -3.1480739159860681e-02  -3.1504233301157834e-02  -3.1590089434768646e-02  -3.1490805885383701e-02  -1.9219479942257586e-02  -1.2017511041931460e-02  -1.0163929764370512e-02  -9.4712983063236725e-03  -8.9148041476389030e-03  -8.4101826036645302e-03  -7.9199944995050481e-03  -7.4480082524132143e-03  -7.0101848410805230e-03  -6.6265226839831177e-03  -6.3103087839622160e-03  -6.0606606505918649e-03  -5.8672066801432211e-03  -5.7196464199534254e-03  -5.6134626728506576e-03  -5.5491991823472852e-03  -5.5288509369894557e-03  -5.5532347570754967e-03  -5.6211956904247641e-03  -5.7304155711633874e-03  -5.8808993553940685e-03  -6.0788972520869075e-03  -6.3356565240001387e-03  -6.6613873544661946e-03  -7.0528901109812841e-03  -7.4945690600648554e-03  -7.9821527340078399e-03  -8.4977465624710390e-03  -9.0560340663947102e-03  -9.7127339903655251e-03  -1.0597023495094301e-02  -1.2947594132169598e-02  -1.9219487086257030e-02  -3.0980716185334278e-02  -3.1495667561745322e-02  -3.1524697765813972e-02  -3.1488791867600244e-02  -3.1507331308355355e-02  -3.1522507032203717e-02  -3.1517080901349560e-02  -3.1497480257324614e-02  -7.1326497645648069e-03  -1.5755764186424565e-02  -3.1534303775996593e-02  -3.1529928831362929e-02  -3.1525995935442752e-02  -3.1526328217381487e-02  -3.1521214846683070e-02  -3.1507176496145692e-02  -3.1488660576168913e-02  -3.1537914516280220e-02  -3.1453018877755139e-02  -2.4592828493172209e-02  -1.3791093305761518e-02  -1.0210690614401396e-02  -9.2268878290625560e-03  -8.6011632811151279e-03  -8.0248166161178466e-03  -7.4797519299883162e-03  -6.9767770776367954e-03  -6.5440281844253998e-03  -6.2016591378189065e-03  -5.9433775493763497e-03  -5.7480016762900665e-03  -5.5975224467721988e-03  -5.4863117158611236e-03  -5.4175466884052777e-03  -5.3955802516689588e-03  -5.4219998259336178e-03  -5.4947741508316553e-03  -5.6085660005312128e-03  -5.7606891715458360e-03  -5.9601227624763321e-03  -6.2272805687979974e-03  -6.5825415161710771e-03  -7.0274763211071387e-03  -7.5219187635541928e-03  -8.0986209590215470e-03  -8.7150413926373720e-03  -9.5624418958415048e-03  -1.1215641646618103e-02  -1.4486075203016837e-02  -2.3023124110730177e-02  -3.1624014326128755e-02  -3.1531135380022252e-02  -3.1467798155882472e-02  -3.1526551098080592e-02  -3.1530067333177751e-02  -3.1526315073821053e-02  -3.1528799101088349e-02  -3.1543893528463249e-02  -3.1549354651500619e-02  -1.5768767739506737e-02  -1.8322533350603978e-02  -3.1520714289866150e-02  -3.1519292523037507e-02  -3.1525345097506971e-02  -3.1528220106053835e-02  -3.1532152839756834e-02  -3.1536232826970108e-02  -3.1524534674293239e-02  -3.1491340845112376e-02  -3.1480669537804221e-02  -3.1427020162981802e-02  -3.0469841792299824e-02  -1.5604718682646714e-02  -1.0298632840319360e-02  -8.9290996562691981e-03  -8.1564492310205652e-03  -7.5182189583525502e-03  -6.9294646105506679e-03  -6.4329961615061070e-03  -6.0646515947746565e-03  -5.8055012893141519e-03  -5.6152045894074997e-03  -5.4632855185716865e-03  -5.3447610171866331e-03  -5.2691741539078888e-03  -5.2448292022985151e-03  -5.2743579854286409e-03  -5.3546076130249242e-03  -5.4752716022948367e-03  -5.6261253175599081e-03  -5.8192408518250287e-03  -6.0911130008474796e-03  -6.4752193687989887e-03  -7.0069112807337958e-03  -7.5618373125837298e-03  -8.2854109622570726e-03  -9.2083280226575043e-03  -1.1685123276051030e-02  -1.6358437446082463e-02  -2.7473484100417084e-02  -3.1418572953407456e-02  -3.1472086252633556e-02  -3.1531269286788330e-02  -3.1530962772425605e-02  -3.1527077788732386e-02  -3.1529950847620482e-02  -3.1526597052103575e-02  -3.1524077641106069e-02  -3.1531214022246436e-02  -3.1816634747789445e-02  -1.6628902068888788e-02  -2.8533053473428414e-02  -4.6135024335391468e-02  -3.5621522531742854e-02  -3.1521537328300361e-02  -3.1519556233628516e-02  -3.1524623454544161e-02  -3.1531089606785086e-02  -3.1538323364478558e-02  -3.1532413613239454e-02  -3.1496859765037501e-02  -3.1473318898694716e-02  -3.1555683168190449e-02  -3.1545740083937346e-02  -1.9107383519909746e-02  -1.1379294264358429e-02  -8.6990075234150144e-03  -7.6928046477839516e-03  -6.9124674871231225e-03  -6.3067552155621140e-03  -5.9076861365172841e-03  -5.6570784138453125e-03  -5.4815831687743347e-03  -5.3276750721943803e-03  -5.1958458073472552e-03  -5.1093504996955466e-03  -5.0815888196145435e-03  -5.1156786102034193e-03  -5.2083321181931432e-03  -5.3445463100448738e-03  -5.4929469049939334e-03  -5.6711633008887782e-03  -5.9449855406012424e-03  -6.3662398069630165e-03  -7.0846826533471439e-03  -7.8276237600522647e-03  -9.3786653281696126e-03  -1.2511607257162992e-02  -1.9045569263284146e-02  -3.1376199384082738e-02  -3.1499238236801654e-02  -3.1460377973246190e-02  -3.1518093882295539e-02  -3.1531690088204035e-02  -3.1530723796095075e-02  -3.1525845030384921e-02  -3.1520582528447083e-02  -3.1518697842992487e-02  -3.1520734239196040e-02  -3.7740281706925012e-02  -4.7931940857139019e-02  -2.5075317564329749e-02  -3.5080419944340926e-02  -6.0547136159691713e-02  -4.6020352778751751e-02  -3.5289037251849828e-02  -3.1518944773497058e-02  -3.1517089086676033e-02  -3.1520583044122842e-02  -3.1527470982901332e-02  -3.1536849742829380e-02  -3.1538811821823609e-02  -3.1515691702604043e-02  -3.1500901499952917e-02  -3.1576852041429744e-02  -3.1499147273543367e-02  -2.6587157065033579e-02  -1.5717845484201257e-02  -1.0393052905787287e-02  -7.8750261594176356e-03  -6.6757586771253640e-03  -6.0522228045198426e-03  -5.7137873324385391e-03  -5.5083841231881201e-03  -5.3189659880726568e-03  -5.1502219694565176e-03  -5.0434771508028773e-03  -5.0111821737904728e-03  -5.0536897870902793e-03  -5.1734891880066266e-03  -5.3605844020727621e-03  -5.5484885974435754e-03  -5.7838296968250645e-03  -6.2061608869036482e-03  -6.9551795652991518e-03  -8.7512369133284189e-03  -1.1214420970825858e-02  -1.5451118176219013e-02  -2.5221501506177132e-02  -3.2029461636707994e-02  -3.1656378357900916e-02  -3.1509256705082971e-02  -3.1530244513134124e-02  -3.1530598682840992e-02  -3.1531113946599409e-02  -3.1523639946838204e-02  -3.1518698084472829e-02  -3.1517619867920885e-02  -3.1520217061207334e-02  -3.6356859885675712e-02  -4.6458829051315459e-02  -6.0499994337122949e-02  -3.3666411696373605e-02  -3.4014071492125382e-02  -6.2914056964952822e-02  -5.0484409555410795e-02  -3.9847954217222308e-02  -3.2801578671684671e-02  -3.1515343094477705e-02  -3.1514391925386596e-02  -3.1517118713055854e-02  -3.1524459501394597e-02  -3.1536834897352366e-02  -3.1547500997356377e-02  -3.1532587044992601e-02  -3.1498614166832771e-02  -3.1526578575079837e-02  -3.1537471610787939e-02  -3.1283339688519811e-02  -2.8261745855535342e-02  -1.9399674307033241e-02  -1.4308766343937998e-02  -1.1631291899402872e-02  -1.0099552594054836e-02  -9.1542935830483535e-03  -8.4262645083564500e-03  -7.9560735615991120e-03  -7.7266424046293566e-03  -7.6755420241430318e-03  -7.7818910870212765e-03  -8.0831886256027847e-03  -8.6192318696067909e-03  -9.2323211186272590e-03  -1.0115319925221520e-02  -1.1694204575640747e-02  -1.4219864591778980e-02  -1.9036693982180528e-02  -2.7399840528881142e-02  -3.0748267087786416e-02  -3.1347227401452821e-02  -3.1525338509965091e-02  -3.1573885730156008e-02  -3.1557651844918093e-02  -3.1538714256882164e-02  -3.1530427715549911e-02  -3.1521431082675855e-02  -3.1517836256085847e-02  -3.1513800000648198e-02  -3.1517923455153148e-02  -3.3329244529984987e-02  -3.9794020294007422e-02  -4.9834384558928482e-02  -6.2143991553493247e-02  -3.5179944403102202e-02  -2.5773081793510767e-02  -5.2483144196017066e-02  -4.5939481320916867e-02  -3.9541087024310549e-02  -3.4223467352365589e-02  -3.1511508088472438e-02  -3.1511739830647909e-02  -3.1511915804747728e-02  -3.1514931753061588e-02  -3.1523559116647108e-02  -3.1538373723567575e-02  -3.1552693581016499e-02  -3.1541925293769243e-02  -3.1504496151218871e-02  -3.1487399628010053e-02  -3.1504153863060262e-02  -3.1559191091937791e-02  -3.1469599598997734e-02  -3.1427239247564680e-02  -3.1462196224490507e-02  -3.1254567595762492e-02  -3.1804520835726401e-02  -3.1030040015577371e-02  -2.9781476986693780e-02  -2.9002617457846252e-02  -2.8747726640255371e-02  -2.8951302562213756e-02  -2.9666844589011782e-02  -3.0906427432881366e-02  -3.1866505072433299e-02  -3.1394414054667211e-02  -3.1266105729138412e-02  -3.1530130171494967e-02  -3.1482444712548296e-02  -3.1698026972412433e-02  -3.1465273988726908e-02  -3.1398106641893631e-02  -3.1527867851282816e-02  -3.1552920845091897e-02  -3.1547190162717433e-02  -3.1534967774659937e-02  -3.1522030934773897e-02  -3.1515372580644643e-02  -3.1514103636130580e-02  -3.1509488727647347e-02  -3.1511811758612340e-02  -3.4120656297531783e-02  -3.8785495408026588e-02  -4.4795673529104817e-02  -5.1204132206569226e-02  -2.9053106842092467e-02  -1.6700173411236807e-02  -3.6186106588555499e-02  -3.5936440148769191e-02  -3.4729215728416848e-02  -3.2985777074545350e-02  -3.1511355539138836e-02  -3.1508008516437432e-02  -3.1510678591285111e-02  -3.1510595503913566e-02  -3.1514574684574678e-02  -3.1523710098447517e-02  -3.1538269338957182e-02  -3.1552835296090861e-02  -3.1553211357128914e-02  -3.1533791462756894e-02  -3.1512558515988796e-02  -3.1502636577858983e-02  -3.1476078212318487e-02  -3.1450989206191445e-02  -3.1471663666461265e-02  -3.1457464794776645e-02  -3.1488498777750909e-02  -3.1521025945105766e-02  -3.1475758922288079e-02  -3.1494241652615447e-02  -3.1508188962706407e-02  -3.1504677835340507e-02  -3.1486167808364982e-02  -3.1471284150510474e-02  -3.1514916184292696e-02  -3.1508537823868123e-02  -