<?xml version="1.0"?>
<VTKFile type="UnstructuredGrid"  version="0.1"  >
<UnstructuredGrid>
<Piece  NumberOfPoints="2601" NumberOfCells="5000">
<Points>
<DataArray  type="Float64"  NumberOfComponents="3"  format="ascii">0 0 0  0.03 0 0  0.06 0 0  0.09 0 0  0.12 0 0  0.15 0 0  0.18 0 0  0.21 0 0  0.24 0 0  0.27 0 0  0.3 0 0  0.33 0 0  0.36 0 0  0.39 0 0  0.42 0 0  0.45 0 0  0.48 0 0  0.51 0 0  0.54 0 0  0.57 0 0  0.6 0 0  0.63 0 0  0.66 0 0  0.6899999999999999 0 0  0.72 0 0  0.75 0 0  0.78 0 0  0.8100000000000001 0 0  0.84 0 0  0.87 0 0  0.9 0 0  0.93 0 0  0.96 0 0  0.99 0 0  1.02 0 0  1.05 0 0  1.08 0 0  1.11 0 0  1.14 0 0  1.17 0 0  1.2 0 0  1.23 0 0  1.26 0 0  1.29 0 0  1.32 0 0  1.35 0 0  1.38 0 0  1.41 0 0  1.44 0 0  1.47 0 0  1.5 0 0  0 0.02 0  0.03 0.02 0  0.06 0.02 0  0.09 0.02 0  0.12 0.02 0  0.15 0.02 0  0.18 0.02 0  0.21 0.02 0  0.24 0.02 0  0.27 0.02 0  0.3 0.02 0  0.33 0.02 0  0.36 0.02 0  0.39 0.02 0  0.42 0.02 0  0.45 0.02 0  0.48 0.02 0  0.51 0.02 0  0.54 0.02 0  0.57 0.02 0  0.6 0.02 0  0.63 0.02 0  0.66 0.02 0  0.6899999999999999 0.02 0  0.72 0.02 0  0.75 0.02 0  0.78 0.02 0  0.8100000000000001 0.02 0  0.84 0.02 0  0.87 0.02 0  0.9 0.02 0  0.93 0.02 0  0.96 0.02 0  0.99 0.02 0  1.02 0.02 0  1.05 0.02 0  1.08 0.02 0  1.11 0.02 0  1.14 0.02 0  1.17 0.02 0  1.2 0.02 0  1.23 0.02 0  1.26 0.02 0  1.29 0.02 0  1.32 0.02 0  1.35 0.02 0  1.38 0.02 0  1.41 0.02 0  1.44 0.02 0  1.47 0.02 0  1.5 0.02 0  0 0.04 0  0.03 0.04 0  0.06 0.04 0  0.09 0.04 0  0.12 0.04 0  0.15 0.04 0  0.18 0.04 0  0.21 0.04 0  0.24 0.04 0  0.27 0.04 0  0.3 0.04 0  0.33 0.04 0  0.36 0.04 0  0.39 0.04 0  0.42 0.04 0  0.45 0.04 0  0.48 0.04 0  0.51 0.04 0  0.54 0.04 0  0.57 0.04 0  0.6 0.04 0  0.63 0.04 0  0.66 0.04 0  0.6899999999999999 0.04 0  0.72 0.04 0  0.75 0.04 0  0.78 0.04 0  0.8100000000000001 0.04 0  0.84 0.04 0  0.87 0.04 0  0.9 0.04 0  0.93 0.04 0  0.96 0.04 0  0.99 0.04 0  1.02 0.04 0  1.05 0.04 0  1.08 0.04 0  1.11 0.04 0  1.14 0.04 0  1.17 0.04 0  1.2 0.04 0  1.23 0.04 0  1.26 0.04 0  1.29 0.04 0  1.32 0.04 0  1.35 0.04 0  1.38 0.04 0  1.41 0.04 0  1.44 0.04 0  1.47 0.04 0  1.5 0.04 0  0 0.06 0  0.03 0.06 0  0.06 0.06 0  0.09 0.06 0  0.12 0.06 0  0.15 0.06 0  0.18 0.06 0  0.21 0.06 0  0.24 0.06 0  0.27 0.06 0  0.3 0.06 0  0.33 0.06 0  0.36 0.06 0  0.39 0.06 0  0.42 0.06 0  0.45 0.06 0  0.48 0.06 0  0.51 0.06 0  0.54 0.06 0  0.57 0.06 0  0.6 0.06 0  0.63 0.06 0  0.66 0.06 0  0.6899999999999999 0.06 0  0.72 0.06 0  0.75 0.06 0  0.78 0.06 0  0.8100000000000001 0.06 0  0.84 0.06 0  0.87 0.06 0  0.9 0.06 0  0.93 0.06 0  0.96 0.06 0  0.99 0.06 0  1.02 0.06 0  1.05 0.06 0  1.08 0.06 0  1.11 0.06 0  1.14 0.06 0  1.17 0.06 0  1.2 0.06 0  1.23 0.06 0  1.26 0.06 0  1.29 0.06 0  1.32 0.06 0  1.35 0.06 0  1.38 0.06 0  1.41 0.06 0  1.44 0.06 0  1.47 0.06 0  1.5 0.06 0  0 0.08 0  0.03 0.08 0  0.06 0.08 0  0.09 0.08 0  0.12 0.08 0  0.15 0.08 0  0.18 0.08 0  0.21 0.08 0  0.24 0.08 0  0.27 0.08 0  0.3 0.08 0  0.33 0.08 0  0.36 0.08 0  0.39 0.08 0  0.42 0.08 0  0.45 0.08 0  0.48 0.08 0  0.51 0.08 0  0.54 0.08 0  0.57 0.08 0  0.6 0.08 0  0.63 0.08 0  0.66 0.08 0  0.6899999999999999 0.08 0  0.72 0.08 0  0.75 0.08 0  0.78 0.08 0  0.8100000000000001 0.08 0  0.84 0.08 0  0.87 0.08 0  0.9 0.08 0  0.93 0.08 0  0.96 0.08 0  0.99 0.08 0  1.02 0.08 0  1.05 0.08 0  1.08 0.08 0  1.11 0.08 0  1.14 0.08 0  1.17 0.08 0  1.2 0.08 0  1.23 0.08 0  1.26 0.08 0  1.29 0.08 0  1.32 0.08 0  1.35 0.08 0  1.38 0.08 0  1.41 0.08 0  1.44 0.08 0  1.47 0.08 0  1.5 0.08 0  0 0.1 0  0.03 0.1 0  0.06 0.1 0  0.09 0.1 0  0.12 0.1 0  0.15 0.1 0  0.18 0.1 0  0.21 0.1 0  0.24 0.1 0  0.27 0.1 0  0.3 0.1 0  0.33 0.1 0  0.36 0.1 0  0.39 0.1 0  0.42 0.1 0  0.45 0.1 0  0.48 0.1 0  0.51 0.1 0  0.54 0.1 0  0.57 0.1 0  0.6 0.1 0  0.63 0.1 0  0.66 0.1 0  0.6899999999999999 0.1 0  0.72 0.1 0  0.75 0.1 0  0.78 0.1 0  0.8100000000000001 0.1 0  0.84 0.1 0  0.87 0.1 0  0.9 0.1 0  0.93 0.1 0  0.96 0.1 0  0.99 0.1 0  1.02 0.1 0  1.05 0.1 0  1.08 0.1 0  1.11 0.1 0  1.14 0.1 0  1.17 0.1 0  1.2 0.1 0  1.23 0.1 0  1.26 0.1 0  1.29 0.1 0  1.32 0.1 0  1.35 0.1 0  1.38 0.1 0  1.41 0.1 0  1.44 0.1 0  1.47 0.1 0  1.5 0.1 0  0 0.12 0  0.03 0.12 0  0.06 0.12 0  0.09 0.12 0  0.12 0.12 0  0.15 0.12 0  0.18 0.12 0  0.21 0.12 0  0.24 0.12 0  0.27 0.12 0  0.3 0.12 0  0.33 0.12 0  0.36 0.12 0  0.39 0.12 0  0.42 0.12 0  0.45 0.12 0  0.48 0.12 0  0.51 0.12 0  0.54 0.12 0  0.57 0.12 0  0.6 0.12 0  0.63 0.12 0  0.66 0.12 0  0.6899999999999999 0.12 0  0.72 0.12 0  0.75 0.12 0  0.78 0.12 0  0.8100000000000001 0.12 0  0.84 0.12 0  0.87 0.12 0  0.9 0.12 0  0.93 0.12 0  0.96 0.12 0  0.99 0.12 0  1.02 0.12 0  1.05 0.12 0  1.08 0.12 0  1.11 0.12 0  1.14 0.12 0  1.17 0.12 0  1.2 0.12 0  1.23 0.12 0  1.26 0.12 0  1.29 0.12 0  1.32 0.12 0  1.35 0.12 0  1.38 0.12 0  1.41 0.12 0  1.44 0.12 0  1.47 0.12 0  1.5 0.12 0  0 0.14 0  0.03 0.14 0  0.06 0.14 0  0.09 0.14 0  0.12 0.14 0  0.15 0.14 0  0.18 0.14 0  0.21 0.14 0  0.24 0.14 0  0.27 0.14 0  0.3 0.14 0  0.33 0.14 0  0.36 0.14 0  0.39 0.14 0  0.42 0.14 0  0.45 0.14 0  0.48 0.14 0  0.51 0.14 0  0.54 0.14 0  0.57 0.14 0  0.6 0.14 0  0.63 0.14 0  0.66 0.14 0  0.6899999999999999 0.14 0  0.72 0.14 0  0.75 0.14 0  0.78 0.14 0  0.8100000000000001 0.14 0  0.84 0.14 0  0.87 0.14 0  0.9 0.14 0  0.93 0.14 0  0.96 0.14 0  0.99 0.14 0  1.02 0.14 0  1.05 0.14 0  1.08 0.14 0  1.11 0.14 0  1.14 0.14 0  1.17 0.14 0  1.2 0.14 0  1.23 0.14 0  1.26 0.14 0  1.29 0.14 0  1.32 0.14 0  1.35 0.14 0  1.38 0.14 0  1.41 0.14 0  1.44 0.14 0  1.47 0.14 0  1.5 0.14 0  0 0.16 0  0.03 0.16 0  0.06 0.16 0  0.09 0.16 0  0.12 0.16 0  0.15 0.16 0  0.18 0.16 0  0.21 0.16 0  0.24 0.16 0  0.27 0.16 0  0.3 0.16 0  0.33 0.16 0  0.36 0.16 0  0.39 0.16 0  0.42 0.16 0  0.45 0.16 0  0.48 0.16 0  0.51 0.16 0  0.54 0.16 0  0.57 0.16 0  0.6 0.16 0  0.63 0.16 0  0.66 0.16 0  0.6899999999999999 0.16 0  0.72 0.16 0  0.75 0.16 0  0.78 0.16 0  0.8100000000000001 0.16 0  0.84 0.16 0  0.87 0.16 0  0.9 0.16 0  0.93 0.16 0  0.96 0.16 0  0.99 0.16 0  1.02 0.16 0  1.05 0.16 0  1.08 0.16 0  1.11 0.16 0  1.14 0.16 0  1.17 0.16 0  1.2 0.16 0  1.23 0.16 0  1.26 0.16 0  1.29 0.16 0  1.32 0.16 0  1.35 0.16 0  1.38 0.16 0  1.41 0.16 0  1.44 0.16 0  1.47 0.16 0  1.5 0.16 0  0 0.18 0  0.03 0.18 0  0.06 0.18 0  0.09 0.18 0  0.12 0.18 0  0.15 0.18 0  0.18 0.18 0  0.21 0.18 0  0.24 0.18 0  0.27 0.18 0  0.3 0.18 0  0.33 0.18 0  0.36 0.18 0  0.39 0.18 0  0.42 0.18 0  0.45 0.18 0  0.48 0.18 0  0.51 0.18 0  0.54 0.18 0  0.57 0.18 0  0.6 0.18 0  0.63 0.18 0  0.66 0.18 0  0.6899999999999999 0.18 0  0.72 0.18 0  0.75 0.18 0  0.78 0.18 0  0.8100000000000001 0.18 0  0.84 0.18 0  0.87 0.18 0  0.9 0.18 0  0.93 0.18 0  0.96 0.18 0  0.99 0.18 0  1.02 0.18 0  1.05 0.18 0  1.08 0.18 0  1.11 0.18 0  1.14 0.18 0  1.17 0.18 0  1.2 0.18 0  1.23 0.18 0  1.26 0.18 0  1.29 0.18 0  1.32 0.18 0  1.35 0.18 0  1.38 0.18 0  1.41 0.18 0  1.44 0.18 0  1.47 0.18 0  1.5 0.18 0  0 0.2 0  0.03 0.2 0  0.06 0.2 0  0.09 0.2 0  0.12 0.2 0  0.15 0.2 0  0.18 0.2 0  0.21 0.2 0  0.24 0.2 0  0.27 0.2 0  0.3 0.2 0  0.33 0.2 0  0.36 0.2 0  0.39 0.2 0  0.42 0.2 0  0.45 0.2 0  0.48 0.2 0  0.51 0.2 0  0.54 0.2 0  0.57 0.2 0  0.6 0.2 0  0.63 0.2 0  0.66 0.2 0  0.6899999999999999 0.2 0  0.72 0.2 0  0.75 0.2 0  0.78 0.2 0  0.8100000000000001 0.2 0  0.84 0.2 0  0.87 0.2 0  0.9 0.2 0  0.93 0.2 0  0.96 0.2 0  0.99 0.2 0  1.02 0.2 0  1.05 0.2 0  1.08 0.2 0  1.11 0.2 0  1.14 0.2 0  1.17 0.2 0  1.2 0.2 0  1.23 0.2 0  1.26 0.2 0  1.29 0.2 0  1.32 0.2 0  1.35 0.2 0  1.38 0.2 0  1.41 0.2 0  1.44 0.2 0  1.47 0.2 0  1.5 0.2 0  0 0.22 0  0.03 0.22 0  0.06 0.22 0  0.09 0.22 0  0.12 0.22 0  0.15 0.22 0  0.18 0.22 0  0.21 0.22 0  0.24 0.22 0  0.27 0.22 0  0.3 0.22 0  0.33 0.22 0  0.36 0.22 0  0.39 0.22 0  0.42 0.22 0  0.45 0.22 0  0.48 0.22 0  0.51 0.22 0  0.54 0.22 0  0.57 0.22 0  0.6 0.22 0  0.63 0.22 0  0.66 0.22 0  0.6899999999999999 0.22 0  0.72 0.22 0  0.75 0.22 0  0.78 0.22 0  0.8100000000000001 0.22 0  0.84 0.22 0  0.87 0.22 0  0.9 0.22 0  0.93 0.22 0  0.96 0.22 0  0.99 0.22 0  1.02 0.22 0  1.05 0.22 0  1.08 0.22 0  1.11 0.22 0  1.14 0.22 0  1.17 0.22 0  1.2 0.22 0  1.23 0.22 0  1.26 0.22 0  1.29 0.22 0  1.32 0.22 0  1.35 0.22 0  1.38 0.22 0  1.41 0.22 0  1.44 0.22 0  1.47 0.22 0  1.5 0.22 0  0 0.24 0  0.03 0.24 0  0.06 0.24 0  0.09 0.24 0  0.12 0.24 0  0.15 0.24 0  0.18 0.24 0  0.21 0.24 0  0.24 0.24 0  0.27 0.24 0  0.3 0.24 0  0.33 0.24 0  0.36 0.24 0  0.39 0.24 0  0.42 0.24 0  0.45 0.24 0  0.48 0.24 0  0.51 0.24 0  0.54 0.24 0  0.57 0.24 0  0.6 0.24 0  0.63 0.24 0  0.66 0.24 0  0.6899999999999999 0.24 0  0.72 0.24 0  0.75 0.24 0  0.78 0.24 0  0.8100000000000001 0.24 0  0.84 0.24 0  0.87 0.24 0  0.9 0.24 0  0.93 0.24 0  0.96 0.24 0  0.99 0.24 0  1.02 0.24 0  1.05 0.24 0  1.08 0.24 0  1.11 0.24 0  1.14 0.24 0  1.17 0.24 0  1.2 0.24 0  1.23 0.24 0  1.26 0.24 0  1.29 0.24 0  1.32 0.24 0  1.35 0.24 0  1.38 0.24 0  1.41 0.24 0  1.44 0.24 0  1.47 0.24 0  1.5 0.24 0  0 0.26 0  0.03 0.26 0  0.06 0.26 0  0.09 0.26 0  0.12 0.26 0  0.15 0.26 0  0.18 0.26 0  0.21 0.26 0  0.24 0.26 0  0.27 0.26 0  0.3 0.26 0  0.33 0.26 0  0.36 0.26 0  0.39 0.26 0  0.42 0.26 0  0.45 0.26 0  0.48 0.26 0  0.51 0.26 0  0.54 0.26 0  0.57 0.26 0  0.6 0.26 0  0.63 0.26 0  0.66 0.26 0  0.6899999999999999 0.26 0  0.72 0.26 0  0.75 0.26 0  0.78 0.26 0  0.8100000000000001 0.26 0  0.84 0.26 0  0.87 0.26 0  0.9 0.26 0  0.93 0.26 0  0.96 0.26 0  0.99 0.26 0  1.02 0.26 0  1.05 0.26 0  1.08 0.26 0  1.11 0.26 0  1.14 0.26 0  1.17 0.26 0  1.2 0.26 0  1.23 0.26 0  1.26 0.26 0  1.29 0.26 0  1.32 0.26 0  1.35 0.26 0  1.38 0.26 0  1.41 0.26 0  1.44 0.26 0  1.47 0.26 0  1.5 0.26 0  0 0.28 0  0.03 0.28 0  0.06 0.28 0  0.09 0.28 0  0.12 0.28 0  0.15 0.28 0  0.18 0.28 0  0.21 0.28 0  0.24 0.28 0  0.27 0.28 0  0.3 0.28 0  0.33 0.28 0  0.36 0.28 0  0.39 0.28 0  0.42 0.28 0  0.45 0.28 0  0.48 0.28 0  0.51 0.28 0  0.54 0.28 0  0.57 0.28 0  0.6 0.28 0  0.63 0.28 0  0.66 0.28 0  0.6899999999999999 0.28 0  0.72 0.28 0  0.75 0.28 0  0.78 0.28 0  0.8100000000000001 0.28 0  0.84 0.28 0  0.87 0.28 0  0.9 0.28 0  0.93 0.28 0  0.96 0.28 0  0.99 0.28 0  1.02 0.28
[...]
<PointData  Scalars="sensitivity"> 
<DataArray  type="Float64"  Name="sensitivity"  format="ascii">-1.2892446138984259e-06  -1.8345177583616619e-05  -7.6396854085556516e-05  -1.9443273152400028e-04  -3.7287050479438888e-04  -5.8921851851394670e-04  -8.1147017080798571e-04  -1.0124517188818728e-03  -1.1762009453245279e-03  -1.2974311200141164e-03  -1.3777942712008006e-03  -1.4223839386426852e-03  -1.4376702404957653e-03  -1.4304220060363700e-03  -1.4070649258870643e-03  -1.3732879781715910e-03  -1.3338569610358338e-03  -1.2925798334799323e-03  -1.2523603422824358e-03  -1.2153007061567148e-03  -1.1828358941516951e-03  -1.1558852333334851e-03  -1.1350015759923249e-03  -1.1204980183158152e-03  -1.1125405121668111e-03  -1.1112055450383403e-03  -1.1165085486690176e-03  -1.1284086499611669e-03  -1.1467907648542582e-03  -1.1714205769704747e-03  -1.2018657239634871e-03  -1.2373806892118061e-03  -1.2767629424261732e-03  -1.3181972419370712e-03  -1.3591083459176406e-03  -1.3960405141770543e-03  -1.4245872142231298e-03  -1.4394055185682367e-03  -1.4343592039624254e-03  -1.4028313435816169e-03  -1.3381642653533428e-03  -1.2344471917241683e-03  -1.0882522560452569e-03  -9.0168199992016467e-04  -6.8617126916311005e-04  -4.6402164804304296e-04  -2.6556077963100144e-04  -1.1980650388812430e-04  -3.7842647123084619e-05  -5.4189187163183637e-06  -5.1133458532747413e-08  -9.3051869193969323e-06  -7.5294675498762789e-05  -2.9990493751406040e-04  -7.8816177645866603e-04  -1.5597208928910646e-03  -2.5275895057599623e-03  -3.5494741392816404e-03  -4.4945119571739300e-03  -5.2795375441316642e-03  -5.8721629848978796e-03  -6.2750384179173415e-03  -6.5089424378725240e-03  -6.6023951987078710e-03  -6.5862401021911854e-03  -6.4903838549491052e-03  -6.3417070283257023e-03  -6.1629934471474773e-03  -5.9726408032206796e-03  -5.7848299313626164e-03  -5.6099429493566407e-03  -5.4551450661280186e-03  -5.3250723229908174e-03  -5.2225358229567136e-03  -5.1491399669791873e-03  -5.1057465986813636e-03  -5.0927721108309015e-03  -5.1103427178750887e-03  -5.1583386530488478e-03  -5.2363382249579890e-03  -5.3434445268299617e-03  -5.4779608522714891e-03  -5.6368937179359186e-03  -5.8153074370427063e-03  -6.0056073808845241e-03  -6.1968505577838541e-03  -6.3741609565263896e-03  -6.5183477143287132e-03  -6.6058625631552730e-03  -6.6093855570702863e-03  -6.4990996267031776e-03  -6.2445382512272040e-03  -5.8173924902953913e-03  -5.1982259679637472e-03  -4.3883568558401170e-03  -3.4277923517140804e-03  -2.4064210568537189e-03  -1.4545751452236075e-03  -7.1196367855202699e-04  -2.5994894477250526e-04  -6.2010768915774230e-05  -3.5656443086188423e-06  -2.6817627338795509e-05  -1.4637339299649577e-04  -4.3603646561505665e-04  -1.0504550819584687e-03  -1.9922000046868659e-03  -3.1413937327582592e-03  -4.3321971031581551e-03  -5.4178065567854075e-03  -6.3086356177259034e-03  -6.9743937716703888e-03  -7.4220426472806312e-03  -7.6760395213226413e-03  -7.7687404667141384e-03  -7.7355369847447279e-03  -7.6110992762497475e-03  -7.4266652531111907e-03  -7.2087054581395724e-03  -6.9786063472513267e-03  -6.7528553876610000e-03  -6.5434753585276242e-03  -6.3586670318365656e-03  -6.2036274003692141e-03  -6.0814218557576211e-03  -5.9937513547846906e-03  -5.9415121654959437e-03  -5.9251371676880167e-03  -5.9447657136098260e-03  -6.0002933594590496e-03  -6.0913199023144519e-03  -6.2169691251305918e-03  -6.3755229410286454e-03  -6.5638268167078299e-03  -6.7764934002360229e-03  -7.0050288551966808e-03  -7.2370174552551054e-03  -7.4554447672440030e-03  -7.6382663184164359e-03  -7.7583253602784841e-03  -7.7841359561289705e-03  -7.6812745621368493e-03  -7.4153728709960252e-03  -6.9535610464914925e-03  -6.2708576895701184e-03  -5.3610089059910916e-03  -4.2609776422092519e-03  -3.0695315659695342e-03  -1.9262477171517849e-03  -9.9223671891945312e-04  -3.9698556891721963e-04  -1.3016074816798776e-04  -1.6224717061491547e-05  -4.3818335259420682e-05  -2.4794007396986017e-04  -6.4877390206044289e-04  -1.4045020683011423e-03  -2.4496550818970198e-03  -3.6399512833505672e-03  -4.8259779345758537e-03  -5.8714767193761407e-03  -6.7029947385247781e-03  -7.3091161688618412e-03  -7.7049577810530782e-03  -7.9145294873324175e-03  -7.9682476365744871e-03  -7.9007183085312172e-03  -7.7464639723759483e-03  -7.5365137408206139e-03  -7.2970288190482204e-03  -7.0491372408561966e-03  -6.8091171417829898e-03  -6.5887106433450962e-03  -6.3956897102654189e-03  -6.2347221721755410e-03  -6.1083659754316531e-03  -6.0179353386610578e-03  -5.9640880626571028e-03  -5.9471406299989576e-03  -5.9672018726594387e-03  -6.0242098788558553e-03  -6.1179013149565160e-03  -6.2476722476513076e-03  -6.4122334175654430e-03  -6.6089724368461489e-03  -6.8330458303173794e-03  -7.0764033935747771e-03  -7.3269415541735100e-03  -7.5679132404016178e-03  -7.7775058622655251e-03  -7.9286292011803185e-03  -7.9896959446231382e-03  -7.9266030209564388e-03  -7.7087788638650961e-03  -7.3035953518286482e-03  -6.6825478359535655e-03  -5.8296009682474821e-03  -4.7620511467811703e-03  -3.5743726331878244e-03  -2.3858543516978720e-03  -1.3297267525584370e-03  -5.7761024804414197e-04  -2.1101177238443662e-04  -3.3970263597081156e-05  -4.0720326530742633e-05  -3.7308199222871747e-04  -1.0686896379085804e-03  -2.1152854916946882e-03  -3.2673966314729777e-03  -4.4385937660359042e-03  -5.5635220496087412e-03  -6.5010559584326574e-03  -7.2097563525142785e-03  -7.7102064050757228e-03  -8.0219456875225120e-03  -8.1621503559285696e-03  -8.1562976960806079e-03  -8.0377924434471559e-03  -7.8408270912075570e-03  -7.5956132444028705e-03  -7.3273292981357657e-03  -7.0563841768438770e-03  -6.7985630350913670e-03  -6.5650559200221290e-03  -6.3628473198178099e-03  -6.1956684265616745e-03  -6.0652181373160741e-03  -5.9721939612658748e-03  -5.9169009614591693e-03  -5.8994964275912712e-03  -5.9200473970672388e-03  -5.9785408525909640e-03  -6.0748926479882188e-03  -6.2088943213396376e-03  -6.3799313424787044e-03  -6.5862921555308335e-03  -6.8240626296502951e-03  -7.0859419834214650e-03  -7.3604331039005093e-03  -7.6314577958075027e-03  -7.8776688550278272e-03  -8.0725552658574961e-03  -8.1846825092684213e-03  -8.1818122386898146e-03  -8.0362803843404915e-03  -7.7202747707717147e-03  -7.2075790027566495e-03  -6.4875306910583712e-03  -5.5121593193424041e-03  -4.3875995212180928e-03  -3.2399485543364312e-03  -2.0494640310149185e-03  -9.5821436715910649e-04  -2.7914374073686516e-04  -4.0530113160143534e-05  -4.4928343338839199e-05  -7.0609549287808839e-04  -2.6648893930505419e-03  -5.0072991546769577e-03  -6.0179885862691801e-03  -6.4314789780399659e-03  -6.9189456586643940e-03  -7.4400105133640305e-03  -7.8926042441126304e-03  -8.2317767146372241e-03  -8.4323907352977807e-03  -8.4819215756022793e-03  -8.3966385957875977e-03  -8.2100500633924527e-03  -7.9566684105346307e-03  -7.6652398235943792e-03  -7.3592604783074087e-03  -7.0581589406527425e-03  -6.7772255455741774e-03  -6.5270221218212974e-03  -6.3134174696869586e-03  -6.1387309436522798e-03  -6.0033959183351587e-03  -5.9072676411283734e-03  -5.8502257909279418e-03  -5.8322653228465061e-03  -5.8534143136625043e-03  -5.9136970160552586e-03  -6.0132096346963643e-03  -6.1522280592470899e-03  -6.3310742973511375e-03  -6.5493722149788389e-03  -6.8045963063936678e-03  -7.0904354340040436e-03  -7.3961962925963663e-03  -7.7064260200835396e-03  -8.0005738537459511e-03  -8.2545651381511036e-03  -8.4349601977334893e-03  -8.5099356392488116e-03  -8.4460083117987549e-03  -8.2899850793956651e-03  -7.9841492616064425e-03  -7.6463424137802926e-03  -7.2160963898958586e-03  -6.8751473260556676e-03  -6.3595968842054592e-03  -4.3792387521698947e-03  -1.8912045549373596e-03  -3.8620978126106451e-04  -2.7173304589920525e-05  -5.8303105179609922e-04  -3.0259261535316960e-03  -1.0722196599440226e-02  -1.9624438703745237e-02  -2.2312317603501920e-02  -1.8611795528674830e-02  -1.3534447154249141e-02  -1.0095469532447153e-02  -8.9893936904094848e-03  -8.9107206114084000e-03  -8.9451418292635539e-03  -8.8793792588438766e-03  -8.6921436621293525e-03  -8.4189602002964596e-03  -8.0954847478767519e-03  -7.7471018596741714e-03  -7.3944859451780410e-03  -7.0559206602428572e-03  -6.7464929218428015e-03  -6.4762396864029639e-03  -6.2494857811248236e-03  -6.0664329355208180e-03  -5.9256992706687812e-03  -5.8260719542168726e-03  -5.7670030304655517e-03  -5.7483846507620836e-03  -5.7702293076665381e-03  -5.8325584669891104e-03  -5.9355781828263187e-03  -6.0800677669547434e-03  -6.2675796872201156e-03  -6.4996867060413870e-03  -6.7759614718486266e-03  -7.0912425461028940e-03  -7.4355579492844156e-03  -7.7939620671979440e-03  -8.1491976843483371e-03  -8.4780164029471319e-03  -8.7410223507863923e-03  -8.9206560913142417e-03  -8.9798042835387872e-03  -9.1782261312519757e-03  -9.5450478157180357e-03  -1.1111481560820598e-02  -1.3840339632314258e-02  -1.7967775125076600e-02  -2.2234624270765516e-02  -2.0247783631474343e-02  -1.1906075993350560e-02  -2.5110751614063035e-03  -9.2784591739713908e-05  -1.7999647480313975e-03  -1.8674570220558875e-02  -3.1386801409334357e-02  -3.1410241838411235e-02  -3.1351466690809279e-02  -3.1358488418790353e-02  -3.1433742052140473e-02  -2.4941326635592710e-02  -1.4515671418938102e-02  -1.0446761891133621e-02  -9.6527802822041087e-03  -9.3714710053932927e-03  -9.0424390578511434e-03  -8.6610770753415035e-03  -8.2545288998445154e-03  -7.8390807522974778e-03  -7.4308761521908037e-03  -7.0471912855018873e-03  -6.7037660751097915e-03  -6.4105892932215637e-03  -6.1697768157333516e-03  -5.9782475838350401e-03  -5.8320276194218576e-03  -5.7286595931421349e-03  -5.6673102890875855e-03  -5.6479330429808272e-03  -5.6705781970638669e-03  -5.7351843941764180e-03  -5.8418706579689431e-03  -5.9917906047389962e-03  -6.1880343558030444e-03  -6.4350017859335596e-03  -6.7355775995239144e-03  -7.0858564862737224e-03  -7.4760074046182354e-03  -7.8926561461369320e-03  -8.3216374555186452e-03  -8.7337305632901353e-03  -9.1285139286815496e-03  -9.4875846645304015e-03  -9.8638115404802457e-03  -1.1639969673532785e-02  -1.5146896044564245e-02  -2.3258839467531912e-02  -3.1238187633100066e-02  -3.1321623332093096e-02  -3.1368287439144084e-02  -3.1422513470358349e-02  -3.1389969211636261e-02  -1.9024107258389739e-02  -1.7096527462429961e-03  -9.3703531208866528e-03  -3.1529219583890433e-02  -3.1502965231575600e-02  -3.1487283380507235e-02  -3.1482876297867883e-02  -3.1497101412633656e-02  -3.1505474018247881e-02  -3.1362059557546548e-02  -3.1496708097187194e-02  -1.9413450961156271e-02  -1.2072374155440768e-02  -1.0134786648808364e-02  -9.4647106433561785e-03  -8.9326545808271242e-03  -8.4312316054400913e-03  -7.9390977528390194e-03  -7.4661581820661335e-03  -7.0288083154955690e-03  -6.6453584702221942e-03  -6.3270927295877881e-03  -6.0726648781838834e-03  -5.8736258044704264e-03  -5.7223113626121321e-03  -5.6150349392064831e-03  -5.5511015066116668e-03  -5.5308441025049542e-03  -5.5544358265397558e-03  -5.6216125478026477e-03  -5.7320122677951037e-03  -5.8867302673096672e-03  -6.0905695327532318e-03  -6.3521030519671211e-03  -6.6799290754704244e-03  -7.0720941206741479e-03  -7.5148084198502383e-03  -8.0003184043030973e-03  -8.5097977771957309e-03  -9.0476840884682296e-03  -9.6979203991927367e-03  -1.0632278193699475e-02  -1.2958122752857884e-02  -1.9332839181256625e-02  -3.1196616599889843e-02  -3.1326556619789982e-02  -3.1533620484670066e-02  -3.1521884395742585e-02  -3.1488351266108168e-02  -3.1485183778156255e-02  -3.1487757948471959e-02  -3.1512933574843791e-02  -7.1024523101266418e-03  -1.5748772330270507e-02  -3.1521351823090210e-02  -3.1523945856037933e-02  -3.1510705477709344e-02  -3.1511641759807411e-02  -3.1503104297243303e-02  -3.1511517631235754e-02  -3.1514609065726361e-02  -3.1507552082001233e-02  -3.1400227735181682e-02  -2.4571790985872317e-02  -1.3838653653912635e-02  -1.0271480491204748e-02  -9.2723796716808332e-03  -8.6317349489913372e-03  -8.0470008515668816e-03  -7.4991343334332083e-03  -6.9973426542106788e-03  -6.5662323113221737e-03  -6.2218842587002205e-03  -5.9565508850755117e-03  -5.7524844044500650e-03  -5.5968852246005328e-03  -5.4853920940936256e-03  -5.4183803451303986e-03  -5.3970612715415617e-03  -5.4218418453339271e-03  -5.4921287699513498e-03  -5.6064332928472422e-03  -5.7647074655702030e-03  -5.9732373748924185e-03  -6.2471321028781234e-03  -6.6042756785210004e-03  -7.0488648958315289e-03  -7.5473216721170036e-03  -8.1250199783670929e-03  -8.7430744605303777e-03  -9.5538276924711247e-03  -1.1231058490068939e-02  -1.4596589891461554e-02  -2.3141648813678396e-02  -3.1133680336239228e-02  -3.1575133478037892e-02  -3.1527315945840254e-02  -3.1485355523504940e-02  -3.1514132708165318e-02  -3.1513575134926960e-02  -3.1517864105090110e-02  -3.1510620588532726e-02  -3.1514077549681489e-02  -1.5764434798334753e-02  -1.8378019586154790e-02  -3.1761189179166760e-02  -3.1521865188875203e-02  -3.1532378001999158e-02  -3.1514639562784955e-02  -3.1517286386995191e-02  -3.1509937594346317e-02  -3.1506939996690672e-02  -3.1529447621038147e-02  -3.1505646819545166e-02  -3.1218696000791461e-02  -2.9530396021642279e-02  -1.5798812923922618e-02  -1.0442966533038450e-02  -8.9790834191752766e-03  -8.1839817038006565e-03  -7.5377389249967871e-03  -6.9518572521445263e-03  -6.4601334548397612e-03  -6.0907832910177687e-03  -5.8209596237089167e-03  -5.6162561808579016e-03  -5.4571871849266847e-03  -5.3405603147761169e-03  -5.2695804926015891e-03  -5.2469298500113599e-03  -5.2733533989923120e-03  -5.3477604270084304e-03  -5.4669290117397001e-03  -5.6271612692073009e-03  -5.8353056728772442e-03  -6.1165250709132209e-03  -6.5021118439233016e-03  -7.0279906911474826e-03  -7.5952352530633737e-03  -8.3300645714407227e-03  -9.2891781035479414e-03  -1.1678949718215386e-02  -1.6449259169951085e-02  -2.7421003936657543e-02  -3.1243379772593720e-02  -3.1511581613143179e-02  -3.1494723017363717e-02  -3.1514266586792627e-02  -3.1520850117964898e-02  -3.1517737843289477e-02  -3.1527629010145435e-02  -3.1531806408964365e-02  -3.1514606599153824e-02  -3.2028001215636183e-02  -1.6710474072548120e-02  -2.8545113855411731e-02  -4.6202313057392218e-02  -3.5685233265315405e-02  -3.1538481765972765e-02  -3.1521618513378376e-02  -3.1517829046126385e-02  -3.1524622230804593e-02  -3.1514451490244823e-02  -3.1506228876627761e-02  -3.1514649800242184e-02  -3.1489255428887857e-02  -3.1338248236628570e-02  -3.1334075839043879e-02  -1.9415465923877658e-02  -1.1542016961805977e-02  -8.7722324527818689e-03  -7.7208050388567493e-03  -6.9406652280387090e-03  -6.3428868119231275e-03  -5.9458182689496970e-03  -5.6789578164059924e-03  -5.4774738797333062e-03  -5.3132910407432520e-03  -5.1885229776622976e-03  -5.1118022143790114e-03  -5.0874563846120772e-03  -5.1164918754700844e-03  -5.1972571103456192e-03  -5.3261883128078117e-03  -5.4899354843946967e-03  -5.6949546616839701e-03  -5.9815860394916136e-03  -6.4048355356178099e-03  -7.1039224395717292e-03  -7.8884318012045745e-03  -9.4905153073395580e-03  -1.2662027771890804e-02  -1.9209295948438457e-02  -3.0537400230840686e-02  -3.1338676258797812e-02  -3.1493064908751735e-02  -3.1479306328356951e-02  -3.1515462015203929e-02  -3.1526932373003663e-02  -3.1524053683475238e-02  -3.1526629851506241e-02  -3.1517870416534623e-02  -3.1553955823082708e-02  -3.7755432725560575e-02  -4.7978911494181008e-02  -2.5138130649259401e-02  -3.5088366718514716e-02  -6.0558355746813008e-02  -4.6035054745928221e-02  -3.5324338354251181e-02  -3.1529801111634510e-02  -3.1518548482018835e-02  -3.1519539933580511e-02  -3.1525454004015130e-02  -3.1518027142054914e-02  -3.1501411764498277e-02  -3.1503675995025703e-02  -3.1524438712395478e-02  -3.1499376457825461e-02  -3.1378887314759484e-02  -2.6614720215057317e-02  -1.5942154648050842e-02  -1.0525333865177355e-02  -7.9703376435026081e-03  -6.7545542143552439e-03  -6.1327056290281564e-03  -5.7701692904685280e-03  -5.5163839872272155e-03  -5.3113829944156470e-03  -5.1583122366760511e-03  -5.0674783867678333e-03  -5.0403758399169760e-03  -5.0770925090243184e-03  -5.1776120217797350e-03  -5.3471453500617359e-03  -5.5620393884740710e-03  -5.8445519710366278e-03  -6.2850610122980018e-03  -7.0493875538076350e-03  -8.8031376128535933e-03  -1.1374997020363794e-02  -1.5709874744517283e-02  -2.5350711588126133e-02  -3.1703060764534975e-02  -3.1535671777482996e-02  -3.1471371135064034e-02  -3.1479157001953521e-02  -3.1512475747805115e-02  -3.1526392459302485e-02  -3.1526320289072235e-02  -3.1520986939603174e-02  -3.1517296220237620e-02  -3.1550035940244872e-02  -3.6379203756958266e-02  -4.6474267365519982e-02  -6.0513038595342031e-02  -3.3675706263369097e-02  -3.4022165195915631e-02  -6.2920734912945780e-02  -5.0485742289663862e-02  -3.9867150160900859e-02  -3.2868475030304045e-02  -3.1517803687700588e-02  -3.1512011366194449e-02  -3.1517231077108354e-02  -3.1525803973203592e-02  -3.1519099417619781e-02  -3.1502034119642322e-02  -3.1506113293403241e-02  -3.1537754807910622e-02  -3.1508937263740731e-02  -3.1337849221967924e-02  -3.1262412689038802e-02  -2.7986762156073278e-02  -1.9579400878169825e-02  -1.4530457390095888e-02  -1.1860911259753009e-02  -1.0270273086741295e-02  -9.2401545727020667e-03  -8.5371465490339631e-03  -8.1101131145122959e-03  -7.8925114210243556e-03  -7.8397659389874991e-03  -7.9387251397744461e-03  -8.2020929311236532e-03  -8.6892349804833374e-03  -9.3692954208998824e-03  -1.0351760293197978e-02  -1.1920797525997151e-02  -1.4439859125753872e-02  -1.9174731024851829e-02  -2.7274561035990911e-02  -3.0989137885445488e-02  -3.1225151557489846e-02  -3.1575645883045463e-02  -3.1540839130357108e-02  -3.1495660980896595e-02  -3.1512617377300052e-02  -3.1526284384502237e-02  -3.1523492934386291e-02  -3.1517919875794692e-02  -3.1514725792759879e-02  -3.1522109701274059e-02  -3.3370643932426440e-02  -3.9808881221243535e-02  -4.9837599511856706e-02  -6.2151265742926017e-02  -3.5187610270943769e-02  -2.5793761077291713e-02  -5.2493520744042406e-02  -4.5940386656081494e-02  -3.9550074553311179e-02  -3.4287723920104138e-02  -3.1580191729597973e-02  -3.1511772074725601e-02  -3.1502808849844285e-02  -3.1515573150169340e-02  -3.1525021072482923e-02  -3.1521879783217889e-02  -3.1507411868022882e-02  -3.1502529713829705e-02  -3.1514228828058349e-02  -3.1520699668740139e-02  -3.1502480407424344e-02  -3.1416035874772250e-02  -3.1235978796226704e-02  -3.1307988735779488e-02  -3.1356846482217350e-02  -3.1114632925937441e-02  -3.0819530488446795e-02  -2.9940118585909475e-02  -2.9115951505501458e-02  -2.8601851193774633e-02  -2.8417060977181330e-02  -2.8572136603730296e-02  -2.9055391783227871e-02  -2.9857851424552093e-02  -3.0783369984902432e-02  -3.1080619351544516e-02  -3.1287644933220705e-02  -3.1406417577086447e-02  -3.1277442079171124e-02  -3.1353538851315428e-02  -3.1527397809497731e-02  -3.1473907049939305e-02  -3.1479657541914348e-02  -3.1511738155463334e-02  -3.1521308468158024e-02  -3.1527222423176703e-02  -3.1522288444990651e-02  -3.1511746375759681e-02  -3.1511805690080816e-02  -3.1511883682520433e-02  -3.1615813053356166e-02  -3.4164316007722399e-02  -3.8797133231738494e-02  -4.4796393063472183e-02  -5.1214615278713072e-02  -2.9062865182087033e-02  -1.6752347804877558e-02  -3.6218829908543422e-02  -3.5951466375422923e-02  -3.4753443604529123e-02  -3.3058548912225372e-02  -3.1675955589175520e-02  -3.1514882490330264e-02  -3.1500914190595732e-02  -3.1499303770720653e-02  -3.1513310725111675e-02  -3.1525234954329621e-02  -3.1524661267619866e-02  -3.1510877382995128e-02  -3.1496413134218387e-02  -3.1494746346652933e-02  -3.1505532915306819e-02  -3.1512180081929721e-02  -3.1497978635248919e-02  -3.1503673252720868e-02  -3.1539168671268492e-02  -3.1534918900719286e-02  -3.1517410959261180e-02  -3.1486623361088935e-02  -3.1462526454245486e-02  -3.1478435789732064e-02  -3.1485552297855539e-02  -3.1481294194453953e-02  -3.1469583331256747e-02  -3.1459679181263203e-02  -3.1492792448146407e-02  -3.1529934260056389e-02  -