<?xml version="1.0"?>
<VTKFile type="UnstructuredGrid"  version="0.1"  >
<UnstructuredGrid>
<Piece  NumberOfPoints="2601" NumberOfCells="5000">
<Points>
<DataArray  type="Float64"  NumberOfComponents="3"  format="ascii">0 0 0  0.03 0 0  0.06 0 0  0.09 0 0  0.12 0 0  0.15 0 0  0.18 0 0  0.21 0 0  0.24 0 0  0.27 0 0  0.3 0 0  0.33 0 0  0.36 0 0  0.39 0 0  0.42 0 0  0.45 0 0  0.48 0 0  0.51 0 0  0.54 0 0  0.57 0 0  0.6 0 0  0.63 0 0  0.66 0 0  0.6899999999999999 0 0  0.72 0 0  0.75 0 0  0.78 0 0  0.8100000000000001 0 0  0.84 0 0  0.87 0 0  0.9 0 0  0.93 0 0  0.96 0 0  0.99 0 0  1.02 0 0  1.05 0 0  1.08 0 0  1.11 0 0  1.14 0 0  1.17 0 0  1.2 0 0  1.23 0 0  1.26 0 0  1.29 0 0  1.32 0 0  1.35 0 0  1.38 0 0  1.41 0 0  1.44 0 0  1.47 0 0  1.5 0 0  0 0.02 0  0.03 0.02 0  0.06 0.02 0  0.09 0.02 0  0.12 0.02 0  0.15 0.02 0  0.18 0.02 0  0.21 0.02 0  0.24 0.02 0  0.27 0.02 0  0.3 0.02 0  0.33 0.02 0  0.36 0.02 0  0.39 0.02 0  0.42 0.02 0  0.45 0.02 0  0.48 0.02 0  0.51 0.02 0  0.54 0.02 0  0.57 0.02 0  0.6 0.02 0  0.63 0.02 0  0.66 0.02 0  0.6899999999999999 0.02 0  0.72 0.02 0  0.75 0.02 0  0.78 0.02 0  0.8100000000000001 0.02 0  0.84 0.02 0  0.87 0.02 0  0.9 0.02 0  0.93 0.02 0  0.96 0.02 0  0.99 0.02 0  1.02 0.02 0  1.05 0.02 0  1.08 0.02 0  1.11 0.02 0  1.14 0.02 0  1.17 0.02 0  1.2 0.02 0  1.23 0.02 0  1.26 0.02 0  1.29 0.02 0  1.32 0.02 0  1.35 0.02 0  1.38 0.02 0  1.41 0.02 0  1.44 0.02 0  1.47 0.02 0  1.5 0.02 0  0 0.04 0  0.03 0.04 0  0.06 0.04 0  0.09 0.04 0  0.12 0.04 0  0.15 0.04 0  0.18 0.04 0  0.21 0.04 0  0.24 0.04 0  0.27 0.04 0  0.3 0.04 0  0.33 0.04 0  0.36 0.04 0  0.39 0.04 0  0.42 0.04 0  0.45 0.04 0  0.48 0.04 0  0.51 0.04 0  0.54 0.04 0  0.57 0.04 0  0.6 0.04 0  0.63 0.04 0  0.66 0.04 0  0.6899999999999999 0.04 0  0.72 0.04 0  0.75 0.04 0  0.78 0.04 0  0.8100000000000001 0.04 0  0.84 0.04 0  0.87 0.04 0  0.9 0.04 0  0.93 0.04 0  0.96 0.04 0  0.99 0.04 0  1.02 0.04 0  1.05 0.04 0  1.08 0.04 0  1.11 0.04 0  1.14 0.04 0  1.17 0.04 0  1.2 0.04 0  1.23 0.04 0  1.26 0.04 0  1.29 0.04 0  1.32 0.04 0  1.35 0.04 0  1.38 0.04 0  1.41 0.04 0  1.44 0.04 0  1.47 0.04 0  1.5 0.04 0  0 0.06 0  0.03 0.06 0  0.06 0.06 0  0.09 0.06 0  0.12 0.06 0  0.15 0.06 0  0.18 0.06 0  0.21 0.06 0  0.24 0.06 0  0.27 0.06 0  0.3 0.06 0  0.33 0.06 0  0.36 0.06 0  0.39 0.06 0  0.42 0.06 0  0.45 0.06 0  0.48 0.06 0  0.51 0.06 0  0.54 0.06 0  0.57 0.06 0  0.6 0.06 0  0.63 0.06 0  0.66 0.06 0  0.6899999999999999 0.06 0  0.72 0.06 0  0.75 0.06 0  0.78 0.06 0  0.8100000000000001 0.06 0  0.84 0.06 0  0.87 0.06 0  0.9 0.06 0  0.93 0.06 0  0.96 0.06 0  0.99 0.06 0  1.02 0.06 0  1.05 0.06 0  1.08 0.06 0  1.11 0.06 0  1.14 0.06 0  1.17 0.06 0  1.2 0.06 0  1.23 0.06 0  1.26 0.06 0  1.29 0.06 0  1.32 0.06 0  1.35 0.06 0  1.38 0.06 0  1.41 0.06 0  1.44 0.06 0  1.47 0.06 0  1.5 0.06 0  0 0.08 0  0.03 0.08 0  0.06 0.08 0  0.09 0.08 0  0.12 0.08 0  0.15 0.08 0  0.18 0.08 0  0.21 0.08 0  0.24 0.08 0  0.27 0.08 0  0.3 0.08 0  0.33 0.08 0  0.36 0.08 0  0.39 0.08 0  0.42 0.08 0  0.45 0.08 0  0.48 0.08 0  0.51 0.08 0  0.54 0.08 0  0.57 0.08 0  0.6 0.08 0  0.63 0.08 0  0.66 0.08 0  0.6899999999999999 0.08 0  0.72 0.08 0  0.75 0.08 0  0.78 0.08 0  0.8100000000000001 0.08 0  0.84 0.08 0  0.87 0.08 0  0.9 0.08 0  0.93 0.08 0  0.96 0.08 0  0.99 0.08 0  1.02 0.08 0  1.05 0.08 0  1.08 0.08 0  1.11 0.08 0  1.14 0.08 0  1.17 0.08 0  1.2 0.08 0  1.23 0.08 0  1.26 0.08 0  1.29 0.08 0  1.32 0.08 0  1.35 0.08 0  1.38 0.08 0  1.41 0.08 0  1.44 0.08 0  1.47 0.08 0  1.5 0.08 0  0 0.1 0  0.03 0.1 0  0.06 0.1 0  0.09 0.1 0  0.12 0.1 0  0.15 0.1 0  0.18 0.1 0  0.21 0.1 0  0.24 0.1 0  0.27 0.1 0  0.3 0.1 0  0.33 0.1 0  0.36 0.1 0  0.39 0.1 0  0.42 0.1 0  0.45 0.1 0  0.48 0.1 0  0.51 0.1 0  0.54 0.1 0  0.57 0.1 0  0.6 0.1 0  0.63 0.1 0  0.66 0.1 0  0.6899999999999999 0.1 0  0.72 0.1 0  0.75 0.1 0  0.78 0.1 0  0.8100000000000001 0.1 0  0.84 0.1 0  0.87 0.1 0  0.9 0.1 0  0.93 0.1 0  0.96 0.1 0  0.99 0.1 0  1.02 0.1 0  1.05 0.1 0  1.08 0.1 0  1.11 0.1 0  1.14 0.1 0  1.17 0.1 0  1.2 0.1 0  1.23 0.1 0  1.26 0.1 0  1.29 0.1 0  1.32 0.1 0  1.35 0.1 0  1.38 0.1 0  1.41 0.1 0  1.44 0.1 0  1.47 0.1 0  1.5 0.1 0  0 0.12 0  0.03 0.12 0  0.06 0.12 0  0.09 0.12 0  0.12 0.12 0  0.15 0.12 0  0.18 0.12 0  0.21 0.12 0  0.24 0.12 0  0.27 0.12 0  0.3 0.12 0  0.33 0.12 0  0.36 0.12 0  0.39 0.12 0  0.42 0.12 0  0.45 0.12 0  0.48 0.12 0  0.51 0.12 0  0.54 0.12 0  0.57 0.12 0  0.6 0.12 0  0.63 0.12 0  0.66 0.12 0  0.6899999999999999 0.12 0  0.72 0.12 0  0.75 0.12 0  0.78 0.12 0  0.8100000000000001 0.12 0  0.84 0.12 0  0.87 0.12 0  0.9 0.12 0  0.93 0.12 0  0.96 0.12 0  0.99 0.12 0  1.02 0.12 0  1.05 0.12 0  1.08 0.12 0  1.11 0.12 0  1.14 0.12 0  1.17 0.12 0  1.2 0.12 0  1.23 0.12 0  1.26 0.12 0  1.29 0.12 0  1.32 0.12 0  1.35 0.12 0  1.38 0.12 0  1.41 0.12 0  1.44 0.12 0  1.47 0.12 0  1.5 0.12 0  0 0.14 0  0.03 0.14 0  0.06 0.14 0  0.09 0.14 0  0.12 0.14 0  0.15 0.14 0  0.18 0.14 0  0.21 0.14 0  0.24 0.14 0  0.27 0.14 0  0.3 0.14 0  0.33 0.14 0  0.36 0.14 0  0.39 0.14 0  0.42 0.14 0  0.45 0.14 0  0.48 0.14 0  0.51 0.14 0  0.54 0.14 0  0.57 0.14 0  0.6 0.14 0  0.63 0.14 0  0.66 0.14 0  0.6899999999999999 0.14 0  0.72 0.14 0  0.75 0.14 0  0.78 0.14 0  0.8100000000000001 0.14 0  0.84 0.14 0  0.87 0.14 0  0.9 0.14 0  0.93 0.14 0  0.96 0.14 0  0.99 0.14 0  1.02 0.14 0  1.05 0.14 0  1.08 0.14 0  1.11 0.14 0  1.14 0.14 0  1.17 0.14 0  1.2 0.14 0  1.23 0.14 0  1.26 0.14 0  1.29 0.14 0  1.32 0.14 0  1.35 0.14 0  1.38 0.14 0  1.41 0.14 0  1.44 0.14 0  1.47 0.14 0  1.5 0.14 0  0 0.16 0  0.03 0.16 0  0.06 0.16 0  0.09 0.16 0  0.12 0.16 0  0.15 0.16 0  0.18 0.16 0  0.21 0.16 0  0.24 0.16 0  0.27 0.16 0  0.3 0.16 0  0.33 0.16 0  0.36 0.16 0  0.39 0.16 0  0.42 0.16 0  0.45 0.16 0  0.48 0.16 0  0.51 0.16 0  0.54 0.16 0  0.57 0.16 0  0.6 0.16 0  0.63 0.16 0  0.66 0.16 0  0.6899999999999999 0.16 0  0.72 0.16 0  0.75 0.16 0  0.78 0.16 0  0.8100000000000001 0.16 0  0.84 0.16 0  0.87 0.16 0  0.9 0.16 0  0.93 0.16 0  0.96 0.16 0  0.99 0.16 0  1.02 0.16 0  1.05 0.16 0  1.08 0.16 0  1.11 0.16 0  1.14 0.16 0  1.17 0.16 0  1.2 0.16 0  1.23 0.16 0  1.26 0.16 0  1.29 0.16 0  1.32 0.16 0  1.35 0.16 0  1.38 0.16 0  1.41 0.16 0  1.44 0.16 0  1.47 0.16 0  1.5 0.16 0  0 0.18 0  0.03 0.18 0  0.06 0.18 0  0.09 0.18 0  0.12 0.18 0  0.15 0.18 0  0.18 0.18 0  0.21 0.18 0  0.24 0.18 0  0.27 0.18 0  0.3 0.18 0  0.33 0.18 0  0.36 0.18 0  0.39 0.18 0  0.42 0.18 0  0.45 0.18 0  0.48 0.18 0  0.51 0.18 0  0.54 0.18 0  0.57 0.18 0  0.6 0.18 0  0.63 0.18 0  0.66 0.18 0  0.6899999999999999 0.18 0  0.72 0.18 0  0.75 0.18 0  0.78 0.18 0  0.8100000000000001 0.18 0  0.84 0.18 0  0.87 0.18 0  0.9 0.18 0  0.93 0.18 0  0.96 0.18 0  0.99 0.18 0  1.02 0.18 0  1.05 0.18 0  1.08 0.18 0  1.11 0.18 0  1.14 0.18 0  1.17 0.18 0  1.2 0.18 0  1.23 0.18 0  1.26 0.18 0  1.29 0.18 0  1.32 0.18 0  1.35 0.18 0  1.38 0.18 0  1.41 0.18 0  1.44 0.18 0  1.47 0.18 0  1.5 0.18 0  0 0.2 0  0.03 0.2 0  0.06 0.2 0  0.09 0.2 0  0.12 0.2 0  0.15 0.2 0  0.18 0.2 0  0.21 0.2 0  0.24 0.2 0  0.27 0.2 0  0.3 0.2 0  0.33 0.2 0  0.36 0.2 0  0.39 0.2 0  0.42 0.2 0  0.45 0.2 0  0.48 0.2 0  0.51 0.2 0  0.54 0.2 0  0.57 0.2 0  0.6 0.2 0  0.63 0.2 0  0.66 0.2 0  0.6899999999999999 0.2 0  0.72 0.2 0  0.75 0.2 0  0.78 0.2 0  0.8100000000000001 0.2 0  0.84 0.2 0  0.87 0.2 0  0.9 0.2 0  0.93 0.2 0  0.96 0.2 0  0.99 0.2 0  1.02 0.2 0  1.05 0.2 0  1.08 0.2 0  1.11 0.2 0  1.14 0.2 0  1.17 0.2 0  1.2 0.2 0  1.23 0.2 0  1.26 0.2 0  1.29 0.2 0  1.32 0.2 0  1.35 0.2 0  1.38 0.2 0  1.41 0.2 0  1.44 0.2 0  1.47 0.2 0  1.5 0.2 0  0 0.22 0  0.03 0.22 0  0.06 0.22 0  0.09 0.22 0  0.12 0.22 0  0.15 0.22 0  0.18 0.22 0  0.21 0.22 0  0.24 0.22 0  0.27 0.22 0  0.3 0.22 0  0.33 0.22 0  0.36 0.22 0  0.39 0.22 0  0.42 0.22 0  0.45 0.22 0  0.48 0.22 0  0.51 0.22 0  0.54 0.22 0  0.57 0.22 0  0.6 0.22 0  0.63 0.22 0  0.66 0.22 0  0.6899999999999999 0.22 0  0.72 0.22 0  0.75 0.22 0  0.78 0.22 0  0.8100000000000001 0.22 0  0.84 0.22 0  0.87 0.22 0  0.9 0.22 0  0.93 0.22 0  0.96 0.22 0  0.99 0.22 0  1.02 0.22 0  1.05 0.22 0  1.08 0.22 0  1.11 0.22 0  1.14 0.22 0  1.17 0.22 0  1.2 0.22 0  1.23 0.22 0  1.26 0.22 0  1.29 0.22 0  1.32 0.22 0  1.35 0.22 0  1.38 0.22 0  1.41 0.22 0  1.44 0.22 0  1.47 0.22 0  1.5 0.22 0  0 0.24 0  0.03 0.24 0  0.06 0.24 0  0.09 0.24 0  0.12 0.24 0  0.15 0.24 0  0.18 0.24 0  0.21 0.24 0  0.24 0.24 0  0.27 0.24 0  0.3 0.24 0  0.33 0.24 0  0.36 0.24 0  0.39 0.24 0  0.42 0.24 0  0.45 0.24 0  0.48 0.24 0  0.51 0.24 0  0.54 0.24 0  0.57 0.24 0  0.6 0.24 0  0.63 0.24 0  0.66 0.24 0  0.6899999999999999 0.24 0  0.72 0.24 0  0.75 0.24 0  0.78 0.24 0  0.8100000000000001 0.24 0  0.84 0.24 0  0.87 0.24 0  0.9 0.24 0  0.93 0.24 0  0.96 0.24 0  0.99 0.24 0  1.02 0.24 0  1.05 0.24 0  1.08 0.24 0  1.11 0.24 0  1.14 0.24 0  1.17 0.24 0  1.2 0.24 0  1.23 0.24 0  1.26 0.24 0  1.29 0.24 0  1.32 0.24 0  1.35 0.24 0  1.38 0.24 0  1.41 0.24 0  1.44 0.24 0  1.47 0.24 0  1.5 0.24 0  0 0.26 0  0.03 0.26 0  0.06 0.26 0  0.09 0.26 0  0.12 0.26 0  0.15 0.26 0  0.18 0.26 0  0.21 0.26 0  0.24 0.26 0  0.27 0.26 0  0.3 0.26 0  0.33 0.26 0  0.36 0.26 0  0.39 0.26 0  0.42 0.26 0  0.45 0.26 0  0.48 0.26 0  0.51 0.26 0  0.54 0.26 0  0.57 0.26 0  0.6 0.26 0  0.63 0.26 0  0.66 0.26 0  0.6899999999999999 0.26 0  0.72 0.26 0  0.75 0.26 0  0.78 0.26 0  0.8100000000000001 0.26 0  0.84 0.26 0  0.87 0.26 0  0.9 0.26 0  0.93 0.26 0  0.96 0.26 0  0.99 0.26 0  1.02 0.26 0  1.05 0.26 0  1.08 0.26 0  1.11 0.26 0  1.14 0.26 0  1.17 0.26 0  1.2 0.26 0  1.23 0.26 0  1.26 0.26 0  1.29 0.26 0  1.32 0.26 0  1.35 0.26 0  1.38 0.26 0  1.41 0.26 0  1.44 0.26 0  1.47 0.26 0  1.5 0.26 0  0 0.28 0  0.03 0.28 0  0.06 0.28 0  0.09 0.28 0  0.12 0.28 0  0.15 0.28 0  0.18 0.28 0  0.21 0.28 0  0.24 0.28 0  0.27 0.28 0  0.3 0.28 0  0.33 0.28 0  0.36 0.28 0  0.39 0.28 0  0.42 0.28 0  0.45 0.28 0  0.48 0.28 0  0.51 0.28 0  0.54 0.28 0  0.57 0.28 0  0.6 0.28 0  0.63 0.28 0  0.66 0.28 0  0.6899999999999999 0.28 0  0.72 0.28 0  0.75 0.28 0  0.78 0.28 0  0.8100000000000001 0.28 0  0.84 0.28 0  0.87 0.28 0  0.9 0.28 0  0.93 0.28 0  0.96 0.28 0  0.99 0.28 0  1.02 0.28
[...]
<PointData  Scalars="sensitivity"> 
<DataArray  type="Float64"  Name="sensitivity"  format="ascii">-1.3043629473065475e-06  -1.8496140566030590e-05  -7.7028898515940506e-05  -1.9597011576699059e-04  -3.7567335188876751e-04  -5.9354284741630170e-04  -8.1745523353819304e-04  -1.0200613544718612e-03  -1.1852214422596367e-03  -1.3075234295585514e-03  -1.3885208416887732e-03  -1.4332497074480265e-03  -1.4482229043263140e-03  -1.4403536647960710e-03  -1.4162439560634669e-03  -1.3817226851338649e-03  -1.3416377002616021e-03  -1.2998334505271584e-03  -1.2592222995490992e-03  -1.2218976060119058e-03  -1.1892732621564936e-03  -1.1622405399462001e-03  -1.1413239073977963e-03  -1.1268136227829864e-03  -1.1188609282017283e-03  -1.1175348681167661e-03  -1.1228487978843101e-03  -1.1347648683457609e-03  -1.1531779506279397e-03  -1.1778723646308073e-03  -1.2084418604172151e-03  -1.2441693610633646e-03  -1.2838758195924101e-03  -1.3257580408294666e-03  -1.3672365276874191e-03  -1.4048287495963998e-03  -1.4340695133398312e-03  -1.4495201696892650e-03  -1.4449234622587975e-03  -1.4135414912580220e-03  -1.3486159798004509e-03  -1.2441720684677488e-03  -1.0967883288481935e-03  -9.0865758181560730e-04  -6.9140945760562010e-04  -4.6757942351797772e-04  -2.6766398328559234e-04  -1.2080989331465517e-04  -3.8171487759439491e-05  -5.4757808593698411e-06  -5.2715299678117768e-08  -9.3794170285069228e-06  -7.5545871696372876e-05  -3.0080751409175457e-04  -7.9025526172865764e-04  -1.5631765607599856e-03  -2.5325678756152967e-03  -3.5564157162040061e-03  -4.5037977242484905e-03  -5.2911826307052998e-03  -5.8858047974991749e-03  -6.2898431530054198e-03  -6.5235989326701618e-03  -6.6154983822062953e-03  -6.5968116030056178e-03  -6.4981076210157288e-03  -6.3468138637501424e-03  -6.1660102595820212e-03  -5.9741890460258597e-03  -5.7855117859322690e-03  -5.6102783108310577e-03  -5.4555285443705619e-03  -5.3257477262420002e-03  -5.2235972778224794e-03  -5.1505601876182684e-03  -5.1074187479488442e-03  -5.0945477577248564e-03  -5.1120585083583268e-03  -5.1598388293594179e-03  -5.2375054541017978e-03  -5.3442427087372051e-03  -5.4784786658598197e-03  -5.6373700770298608e-03  -5.8161264923364949e-03  -6.0072659424674950e-03  -6.1999082563525395e-03  -6.3791709024318679e-03  -6.5257460149374565e-03  -6.6158163382744831e-03  -6.6216765205788881e-03  -6.5131152525202112e-03  -6.2593536803621135e-03  -5.8318741550102433e-03  -5.2112732882481526e-03  -4.3991219520839731e-03  -3.4359377008932692e-03  -2.4122135690737784e-03  -1.4584249472638546e-03  -7.1416637120715607e-04  -2.6088323530621711e-04  -6.2296612386108567e-05  -3.6021522049528060e-06  -2.7054774477042409e-05  -1.4692156335787169e-04  -4.3705637835613663e-04  -1.0521215166477283e-03  -1.9939835995221021e-03  -3.1430537259474556e-03  -4.3343525504670310e-03  -5.4210140105004851e-03  -6.3130805287548962e-03  -6.9801209308360561e-03  -7.4285525957767957e-03  -7.6819866407066605e-03  -7.7725089331274477e-03  -7.7360899120723818e-03  -7.6082886767053267e-03  -7.4209846123692155e-03  -7.2009145279487109e-03  -6.9694953437278093e-03  -6.7431466066058708e-03  -6.5337737487773757e-03  -6.3494138447190915e-03  -6.1950654223528251e-03  -6.0735964901356661e-03  -5.9865527028128383e-03  -5.9347362278005245e-03  -5.9185362639311706e-03  -5.9380760164266105e-03  -5.9932537114609549e-03  -6.0837060183770789e-03  -6.2086516621296436e-03  -6.3665314832775958e-03  -6.5543885586440056e-03  -6.7670267272614722e-03  -6.9961011793873628e-03  -7.2292927687057865e-03  -7.4496262266352488e-03  -7.6349807320323882e-03  -7.7579209574818227e-03  -7.7865213261209100e-03  -7.6859236243102475e-03  -7.4214809222352867e-03  -6.9600894634261881e-03  -6.2768286218062097e-03  -5.3657279239537684e-03  -4.2641350658477305e-03  -3.0717050823997564e-03  -1.9280324784964223e-03  -9.9359680695022801e-04  -3.9781206275351619e-04  -1.3066078297419785e-04  -1.6363585736997085e-05  -4.4266477659045061e-05  -2.4909847742074400e-04  -6.5049648028718912e-04  -1.4067184254719449e-03  -2.4509670465313262e-03  -3.6402018196057674e-03  -4.8270024049639672e-03  -5.8737572894196691e-03  -6.7063353754897078e-03  -7.3140143272589454e-03  -7.7112756342767440e-03  -7.9205186377470094e-03  -7.9716621527179069e-03  -7.9003120379256327e-03  -7.7422993945539965e-03  -7.5293737887158572e-03  -7.2878423656069025e-03  -7.0387558347446803e-03  -6.7982925754220512e-03  -6.5780829633952948e-03  -6.3857303911277336e-03  -6.2256737136271428e-03  -6.1002342275269768e-03  -6.0105488641883885e-03  -5.9571862702134069e-03  -5.9404366165983352e-03  -5.9603991359225561e-03  -6.0170014583304223e-03  -6.1099985816332339e-03  -6.2388809248491370e-03  -6.4025456211101693e-03  -6.5986200273938757e-03  -6.8224821042812160e-03  -7.0662342991974674e-03  -7.3178653509989857e-03  -7.5607026812610613e-03  -7.7729199808178251e-03  -7.9271400421459474e-03  -7.9911818820499001e-03  -7.9304450125546721e-03  -7.7142423577312800e-03  -7.3096770068896482e-03  -6.6880341748513789e-03  -5.8340288069444416e-03  -4.7643731273705262e-03  -3.5755645269856997e-03  -2.3873607920017392e-03  -1.3313274560910534e-03  -5.7887897878039138e-04  -2.1200997676887155e-04  -3.4296268147347424e-05  -4.1173293076651903e-05  -3.7469818692706608e-04  -1.0710664013542223e-03  -2.1172117960861535e-03  -3.2652069475528410e-03  -4.4338081432088406e-03  -5.5625439805010637e-03  -6.5023242802517917e-03  -7.2114210817835903e-03  -7.7141631878688537e-03  -8.0289159882512649e-03  -8.1693403720775829e-03  -8.1600971898606236e-03  -8.0366653763843318e-03  -7.8353540246702495e-03  -7.5870997137299214e-03  -7.3169199818784014e-03  -7.0449584950002045e-03  -6.7868833002167729e-03  -6.5538139987674719e-03  -6.3525731156859472e-03  -6.1866124347505326e-03  -6.0573238590561126e-03  -5.9651910915327301e-03  -5.9104471276342279e-03  -5.8932634695291666e-03  -5.9137133126247248e-03  -5.9717454567063330e-03  -6.0672522196752732e-03  -6.2001115265064898e-03  -6.3699415259517653e-03  -6.5753449526649611e-03  -6.8126795489900508e-03  -7.0747836219968380e-03  -7.3502166772063428e-03  -7.6230212802532128e-03  -7.8719990254340448e-03  -8.0703494085328856e-03  -8.1856452754352493e-03  -8.1852390620348811e-03  -8.0414395250950656e-03  -7.7263275303779697e-03  -7.2119055497051219e-03  -6.4912853414873205e-03  -5.5116234530667909e-03  -4.3842946846495033e-03  -3.2389811496294769e-03  -2.0507720842807288e-03  -9.5971826324932092e-04  -2.8042387843536288e-04  -4.0993585308329743e-05  -4.5288626912238651e-05  -7.0907557073729541e-04  -2.6703983413149321e-03  -5.0125144293577013e-03  -5.9995618159137051e-03  -6.3996726636707559e-03  -6.9059249411729390e-03  -7.4359599514520289e-03  -7.8893903485064178e-03  -8.2336307538342628e-03  -8.4412411378869331e-03  -8.4919655756077080e-03  -8.4013872546372641e-03  -8.2078129815430154e-03  -7.9493077560348485e-03  -7.6549642728425578e-03  -7.3474122234048044e-03  -7.0455353807299436e-03  -6.7645591956261037e-03  -6.5150936696765282e-03  -6.3028731107195044e-03  -6.1298485443152797e-03  -5.9960167447526769e-03  -5.9009559254116443e-03  -5.8445164622851721e-03  -5.8267947532770325e-03  -5.8478595495828770e-03  -5.9076400043658562e-03  -6.0061198918260053e-03  -6.1436373519892723e-03  -6.3208262454330843e-03  -6.5377588472974348e-03  -6.7922708853957944e-03  -7.0781422839140450e-03  -7.3846373236720253e-03  -7.6964167925360717e-03  -7.9935086306265231e-03  -8.2516339617202828e-03  -8.4356849007598579e-03  -8.5131146336007418e-03  -8.4496627087285621e-03  -8.2958265690931936e-03  -7.9846182195761235e-03  -7.6442585500681969e-03  -7.2011388705062922e-03  -6.8516378331894036e-03  -6.3428665494272554e-03  -4.3707740591010773e-03  -1.8915117501114252e-03  -3.8677147364799089e-04  -2.7525481707803916e-05  -5.9558976438942415e-04  -3.0366649767560728e-03  -1.0715495623053193e-02  -1.9677439424498844e-02  -2.2405482103784249e-02  -1.8556601061851714e-02  -1.3456015411451751e-02  -1.0053855141169629e-02  -8.9598633302908331e-03  -8.9051724609842450e-03  -8.9580694098428688e-03  -8.8954465766672933e-03  -8.6983773878606882e-03  -8.4144411679439018e-03  -8.0851250981629780e-03  -7.7344962009659630e-03  -7.3809255959787724e-03  -7.0418593587914394e-03  -6.7325659320242983e-03  -6.4633959376050832e-03  -6.2386014477285963e-03  -6.0578552919966031e-03  -5.9190971482546159e-03  -5.8207247446558303e-03  -5.7622586601250381e-03  -5.7438744317406549e-03  -5.7656986008505565e-03  -5.8275422431614899e-03  -5.9293149147538679e-03  -6.0718001017851277e-03  -6.2569997288659937e-03  -6.4871761542852745e-03  -6.7624288428785057e-03  -7.0775937278182936e-03  -7.4223696320893972e-03  -7.7816957054481998e-03  -8.1400725272858538e-03  -8.4744254025223894e-03  -8.7422169195274027e-03  -8.9216517774431698e-03  -8.9797922936947720e-03  -9.1817810757507754e-03  -9.5223176497986565e-03  -1.1071413604559995e-02  -1.3780191588119254e-02  -1.7908323439310064e-02  -2.2268440877341332e-02  -2.0276450041105006e-02  -1.1913284486460663e-02  -2.5283371533603182e-03  -9.3207824899776758e-05  -1.8126349318536841e-03  -1.8756767516185376e-02  -3.1506909236435454e-02  -3.1521063707354899e-02  -3.1523092166410492e-02  -3.1511627557300956e-02  -3.1499102408961206e-02  -2.5009088734142450e-02  -1.4398145634001953e-02  -1.0396948061812480e-02  -9.6677004363904494e-03  -9.3987902500442255e-03  -9.0498913488263350e-03  -8.6514655596834477e-03  -8.2394469337455593e-03  -7.8236482349194128e-03  -7.4155024120830144e-03  -7.0315000462026359e-03  -6.6882219411742976e-03  -6.3964799650866417e-03  -6.1584266962907376e-03  -5.9701630623452103e-03  -5.8265783352642658e-03  -5.7246168612097919e-03  -5.6637290705592895e-03  -5.6445215452016794e-03  -5.6673119570179540e-03  -5.7315976910658024e-03  -5.8368229469419200e-03  -5.9840239398047789e-03  -6.1769893220252033e-03  -6.4212331567494252e-03  -6.7204880971871682e-03  -7.0707183658300470e-03  -7.4609691185905649e-03  -7.8773369861665603e-03  -8.3090499723428995e-03  -8.7291953858889288e-03  -9.1311093142260810e-03  -9.4822718054240213e-03  -9.8484965709069120e-03  -1.1616685737627178e-02  -1.5075608598272108e-02  -2.3201799347683315e-02  -3.1473825528685204e-02  -3.1505441026470606e-02  -3.1525928146345972e-02  -3.1522056950416662e-02  -3.1509651304541302e-02  -1.9159620573918099e-02  -1.7580038199193574e-03  -9.4174914365104424e-03  -3.1518092521025706e-02  -3.1520334568869213e-02  -3.1520866465965226e-02  -3.1521323499428267e-02  -3.1517828727923677e-02  -3.1514117619018088e-02  -3.1511148820989154e-02  -3.1503218312420041e-02  -1.9235308653356313e-02  -1.2023695935216685e-02  -1.0162741101373510e-02  -9.4661371641015721e-03  -8.9109501037496555e-03  -8.4091622322986850e-03  -7.9207914034206527e-03  -7.4492585198456746e-03  -7.0113900632173412e-03  -6.6276976528446482e-03  -6.3111560651895595e-03  -6.0606221805675226e-03  -5.8663363066695498e-03  -5.7186125788672082e-03  -5.6127569508557544e-03  -5.5488253735450875e-03  -5.5285357309634055e-03  -5.5526476792488264e-03  -5.6200030270895712e-03  -5.7287797950803304e-03  -5.8797347836255535e-03  -6.0788308203275814e-03  -6.3364754470187808e-03  -6.6627603276298497e-03  -7.0555395927551093e-03  -7.4980624901957180e-03  -7.9815319432194939e-03  -8.4879830562216447e-03  -9.0428355618615928e-03  -9.7014899307679495e-03  -1.0591947727274576e-02  -1.2914758589473069e-02  -1.9223280683837742e-02  -3.1479033785705990e-02  -3.1487636634054808e-02  -3.1510513549177201e-02  -3.1516276373447838e-02  -3.1520958784817608e-02  -3.1523016339014089e-02  -3.1520972257423681e-02  -3.1517398518016645e-02  -7.1381683939157935e-03  -1.5760635829057318e-02  -3.1520564114333335e-02  -3.1519493651025347e-02  -3.1520316576026185e-02  -3.1520570168798771e-02  -3.1520201929169586e-02  -3.1519665871351077e-02  -3.1515980016184116e-02  -3.1520045746273914e-02  -3.1529711093690051e-02  -2.4614561534607966e-02  -1.3783543077413500e-02  -1.0199894530679194e-02  -9.2205188565123788e-03  -8.6002802204043684e-03  -8.0267209505444637e-03  -7.4816148358558283e-03  -6.9782201502615855e-03  -6.5456634308446180e-03  -6.2031639393537504e-03  -5.9433659027665967e-03  -5.7464878355272132e-03  -5.5959537412648523e-03  -5.4855386972016964e-03  -5.4173942571692692e-03  -5.3955543702035522e-03  -5.4216417466985620e-03  -5.4933332711771298e-03  -5.6059923265539850e-03  -5.7588985756054246e-03  -5.9603842306907295e-03  -6.2286258131181759e-03  -6.5841187067689011e-03  -7.0312556193043467e-03  -7.5297820825697614e-03  -8.1026086817651589e-03  -8.6979386145311470e-03  -9.5416839671598093e-03  -1.1201885478811600e-02  -1.4492507602598282e-02  -2.3023505488050898e-02  -3.1562150660688168e-02  -3.1537753902388076e-02  -3.1518314332752859e-02  -3.1517153183706376e-02  -3.1519241945424964e-02  -3.1520063275242982e-02  -3.1519976493343232e-02  -3.1519046133863977e-02  -3.1518398183715560e-02  -1.5758706418380425e-02  -1.8326371006736553e-02  -3.1540389306909868e-02  -3.1521758587376054e-02  -3.1521469155528038e-02  -3.1520714808809802e-02  -3.1520181250162094e-02  -3.1520323347362232e-02  -3.1520379792835451e-02  -3.1519180092056030e-02  -3.1518844155911871e-02  -3.1514400853519565e-02  -3.0467689949737725e-02  -1.5587975190487227e-02  -1.0290234411886852e-02  -8.9289698947251136e-03  -8.1608735602183811e-03  -7.5206711324459731e-03  -6.9308449824290247e-03  -6.4350841439430491e-03  -6.0675990395686373e-03  -5.8056280589309783e-03  -5.6123065840159555e-03  -5.4608011741032383e-03  -5.3440500310892973e-03  -5.2694464390118188e-03  -5.2453076393201205e-03  -5.2744725405782667e-03  -5.3531175892067165e-03  -5.4708373746640056e-03  -5.6230388043340251e-03  -5.8205056199479082e-03  -6.0933477722945216e-03  -6.4766231989992875e-03  -7.0092950907282743e-03  -7.5788442738688663e-03  -8.3021133647437542e-03  -9.1789449983322932e-03  -1.1664543606331750e-02  -1.6353445696149240e-02  -2.7501655100755515e-02  -3.1501308909780756e-02  -3.1519829641964328e-02  -3.1528793816009905e-02  -3.1521697631731599e-02  -3.1519357142184616e-02  -3.1520247924858795e-02  -3.1521212237760103e-02  -3.1521303751059146e-02  -3.1522143738264154e-02  -3.1811737951909121e-02  -1.6625110334650271e-02  -2.8533040464893057e-02  -4.6138504276432568e-02  -3.5624948514129784e-02  -3.1523081672089080e-02  -3.1521544859044140e-02  -3.1521101994049325e-02  -3.1520355865606149e-02  -3.1520306123935103e-02  -3.1520763739990298e-02  -3.1520450327350451e-02  -3.1514957356892227e-02  -3.1511211452906168e-02  -3.1473517857577710e-02  -1.9093145047075450e-02  -1.1373297444209948e-02  -8.7066108015110884e-03  -7.6941380163002690e-03  -6.9128583235955297e-03  -6.3084663469094148e-03  -5.9142267953752291e-03  -5.6577619423103321e-03  -5.4754700716827210e-03  -5.3237674231995180e-03  -5.1956707905805788e-03  -5.1103687166496924e-03  -5.0827794523735335e-03  -5.1164504911546775e-03  -5.2083087835192964e-03  -5.3359086131448399e-03  -5.4868894101744821e-03  -5.6755775685567080e-03  -5.9489204726238453e-03  -6.3667334450632808e-03  -7.0778280719573381e-03  -7.8582770032181552e-03  -9.4184027243914593e-03  -1.2428420935673685e-02  -1.8973333277444306e-02  -3.1420845423858576e-02  -3.1490169759932990e-02  -3.1512704207483172e-02  -3.1520763401879641e-02  -3.1521504405223444e-02  -3.1521165295649911e-02  -3.1520910708272287e-02  -3.1521405996729805e-02  -3.1521507521700284e-02  -3.1523388413109789e-02  -3.7739163955430532e-02  -4.7930778021997675e-02  -2.5075466175633464e-02  -3.5080402771818779e-02  -6.0546879582036431e-02  -4.6019521462815717e-02  -3.5288382070478089e-02  -3.1522679203083659e-02  -3.1522098084558643e-02  -3.1521331502616538e-02  -3.1520605871649829e-02  -3.1520151177189280e-02  -3.1520518540669867e-02  -3.1520643227989503e-02  -3.1516289257011998e-02  -3.1518333337613287e-02  -3.1494916586886142e-02  -2.6604148923436578e-02  -1.5730552274468707e-02  -1.0374044414352119e-02  -7.8684726182076080e-03  -6.6743141314616417e-03  -6.0650539112208426e-03  -5.7170377829592299e-03  -5.4961759204320689e-03  -5.3139894790969573e-03  -5.1520643159456885e-03  -5.0456387652398748e-03  -5.0130084772865438e-03  -5.0554312136325621e-03  -5.1789714365116334e-03  -5.3446735067939144e-03  -5.5379866271445949e-03  -5.7955493868643440e-03  -6.2116339993005133e-03  -6.9518170982812346e-03  -8.7095666915697409e-03  -1.1287706012133740e-02  -1.5546136749792997e-02  -2.5142614922541461e-02  -3.1458683643017654e-02  -3.1549691649188652e-02  -3.1522666384866713e-02  -3.1517678000607896e-02  -3.1520072638878779e-02  -3.1521340259554116e-02  -3.1521571269718954e-02  -3.1521653687091755e-02  -3.1521512447819512e-02  -3.1523340775844212e-02  -3.6357153206560647e-02  -4.6458311472202807e-02  -6.0499427102756090e-02  -3.3666353402271559e-02  -3.4014057570691619e-02  -6.2913798622124137e-02  -5.0483480002137725e-02  -3.9846158348363706e-02  -3.2802222134024651e-02  -3.1522784266257570e-02  -3.1522127658855204e-02  -3.1521615572649243e-02  -3.1520646256307731e-02  -3.1519748243340383e-02  -3.1520059521064223e-02  -3.1520806697425484e-02  -3.1518436443520065e-02  -3.1516018451786330e-02  -3.1515343631786291e-02  -3.1532894837973009e-02  -2.8234843258581853e-02  -1.9379831465307241e-02  -1.4291935884996205e-02  -1.1657815239722091e-02  -1.0090005132991773e-02  -9.1179293736723521e-03  -8.4360099163064573e-03  -7.9645007389936781e-03  -7.7303054337953137e-03  -7.6774969183817827e-03  -7.7856092890026410e-03  -8.1077750862686669e-03  -8.5743591448716860e-03  -9.2075393534587317e-03  -1.0169261121376533e-02  -1.1698185849158244e-02  -1.4203540270124142e-02  -1.8948973777276345e-02  -2.7391653034880510e-02  -3.1428579655921399e-02  -3.1493328625686497e-02  -3.1508320770971737e-02  -3.1522970147623092e-02  -3.1524970936905358e-02  -3.1519946377244881e-02  -3.1520742354909342e-02  -3.1521651637993774e-02  -3.1522149284952408e-02  -3.1522542800128804e-02  -3.1522668301123803e-02  -3.3328973764047608e-02  -3.9793015468166014e-02  -4.9833200595331771e-02  -6.2143421533347641e-02  -3.5179879278303273e-02  -2.5773094283605795e-02  -5.2483086634272584e-02  -4.5938854903036619e-02  -3.9539474068113388e-02  -3.4225382407153983e-02  -3.1525262006502588e-02  -3.1523071198481550e-02  -3.1522108963030350e-02  -3.1521706630998778e-02  -3.1520522013211642e-02  -3.1519418080798459e-02  -3.1519639955467950e-02  -3.1520853209308211e-02  -3.1520353170818617e-02  -3.1517259142025647e-02  -3.1522191799753310e-02  -3.1516901315952722e-02  -3.1482696144423110e-02  -3.1549950916323122e-02  -3.1462838162523883e-02  -3.1476970332732203e-02  -3.1385040044382480e-02  -3.0985939390775583e-02  -2.9818614378948716e-02  -2.9008869043482138e-02  -2.8749619142853573e-02  -2.8960794468669341e-02  -2.9714941562574777e-02  -3.0878379418866456e-02  -3.1384271386262756e-02  -3.1538185545238830e-02  -3.1482411801530205e-02  -3.1519716501792826e-02  -3.1508910686940637e-02  -3.1541938818086292e-02  -3.1523796075924072e-02  -3.1512277048654586e-02  -3.1519180694879981e-02  -3.1519536714041577e-02  -3.1520408463905900e-02  -3.1520645626705750e-02  -3.1521609090940733e-02  -3.1522137732390564e-02  -3.1522583054331546e-02  -3.1523252636420945e-02  -3.1526691480610256e-02  -3.4121069351299972e-02  -3.8784073379046997e-02  -4.4794826710889940e-02  -5.1203796266024039e-02  -2.9053067928822830e-02  -1.6698178710422337e-02  -3.6184283126053741e-02  -3.5935866481500017e-02  -3.4728722506336157e-02  -3.2988022491581524e-02  -3.1530673622919322e-02  -3.1523455608959861e-02  -3.1522522971439648e-02  -3.1522219689486847e-02  -3.1521676873928123e-02  -3.1520473535611486e-02  -3.1519307146500461e-02  -3.1519204743398289e-02  -3.1520438768957583e-02  -3.1521735551933820e-02  -3.1522392009752660e-02  -3.1520257255520621e-02  -3.1512394351641472e-02  -3.1518238985839747e-02  -3.1520959603947712e-02  -3.1513659823631815e-02  -3.1517826491317333e-02  -3.1515267623291758e-02  -3.1519098566195579e-02  -3.1517754570650286e-02  -3.1518466046663716e-02  -3.1518230038696249e-02  -3.1516781058553600e-02  -3.1514706720426895e-02  -3.1510398079319865e-02  -3.1518685803225581e-02  -