<?xml version="1.0"?>
<VTKFile type="UnstructuredGrid"  version="0.1"  >
<UnstructuredGrid>
<Piece  NumberOfPoints="2601" NumberOfCells="5000">
<Points>
<DataArray  type="Float64"  NumberOfComponents="3"  format="ascii">0 0 0  0.03 0 0  0.06 0 0  0.09 0 0  0.12 0 0  0.15 0 0  0.18 0 0  0.21 0 0  0.24 0 0  0.27 0 0  0.3 0 0  0.33 0 0  0.36 0 0  0.39 0 0  0.42 0 0  0.45 0 0  0.48 0 0  0.51 0 0  0.54 0 0  0.57 0 0  0.6 0 0  0.63 0 0  0.66 0 0  0.6899999999999999 0 0  0.72 0 0  0.75 0 0  0.78 0 0  0.8100000000000001 0 0  0.84 0 0  0.87 0 0  0.9 0 0  0.93 0 0  0.96 0 0  0.99 0 0  1.02 0 0  1.05 0 0  1.08 0 0  1.11 0 0  1.14 0 0  1.17 0 0  1.2 0 0  1.23 0 0  1.26 0 0  1.29 0 0  1.32 0 0  1.35 0 0  1.38 0 0  1.41 0 0  1.44 0 0  1.47 0 0  1.5 0 0  0 0.02 0  0.03 0.02 0  0.06 0.02 0  0.09 0.02 0  0.12 0.02 0  0.15 0.02 0  0.18 0.02 0  0.21 0.02 0  0.24 0.02 0  0.27 0.02 0  0.3 0.02 0  0.33 0.02 0  0.36 0.02 0  0.39 0.02 0  0.42 0.02 0  0.45 0.02 0  0.48 0.02 0  0.51 0.02 0  0.54 0.02 0  0.57 0.02 0  0.6 0.02 0  0.63 0.02 0  0.66 0.02 0  0.6899999999999999 0.02 0  0.72 0.02 0  0.75 0.02 0  0.78 0.02 0  0.8100000000000001 0.02 0  0.84 0.02 0  0.87 0.02 0  0.9 0.02 0  0.93 0.02 0  0.96 0.02 0  0.99 0.02 0  1.02 0.02 0  1.05 0.02 0  1.08 0.02 0  1.11 0.02 0  1.14 0.02 0  1.17 0.02 0  1.2 0.02 0  1.23 0.02 0  1.26 0.02 0  1.29 0.02 0  1.32 0.02 0  1.35 0.02 0  1.38 0.02 0  1.41 0.02 0  1.44 0.02 0  1.47 0.02 0  1.5 0.02 0  0 0.04 0  0.03 0.04 0  0.06 0.04 0  0.09 0.04 0  0.12 0.04 0  0.15 0.04 0  0.18 0.04 0  0.21 0.04 0  0.24 0.04 0  0.27 0.04 0  0.3 0.04 0  0.33 0.04 0  0.36 0.04 0  0.39 0.04 0  0.42 0.04 0  0.45 0.04 0  0.48 0.04 0  0.51 0.04 0  0.54 0.04 0  0.57 0.04 0  0.6 0.04 0  0.63 0.04 0  0.66 0.04 0  0.6899999999999999 0.04 0  0.72 0.04 0  0.75 0.04 0  0.78 0.04 0  0.8100000000000001 0.04 0  0.84 0.04 0  0.87 0.04 0  0.9 0.04 0  0.93 0.04 0  0.96 0.04 0  0.99 0.04 0  1.02 0.04 0  1.05 0.04 0  1.08 0.04 0  1.11 0.04 0  1.14 0.04 0  1.17 0.04 0  1.2 0.04 0  1.23 0.04 0  1.26 0.04 0  1.29 0.04 0  1.32 0.04 0  1.35 0.04 0  1.38 0.04 0  1.41 0.04 0  1.44 0.04 0  1.47 0.04 0  1.5 0.04 0  0 0.06 0  0.03 0.06 0  0.06 0.06 0  0.09 0.06 0  0.12 0.06 0  0.15 0.06 0  0.18 0.06 0  0.21 0.06 0  0.24 0.06 0  0.27 0.06 0  0.3 0.06 0  0.33 0.06 0  0.36 0.06 0  0.39 0.06 0  0.42 0.06 0  0.45 0.06 0  0.48 0.06 0  0.51 0.06 0  0.54 0.06 0  0.57 0.06 0  0.6 0.06 0  0.63 0.06 0  0.66 0.06 0  0.6899999999999999 0.06 0  0.72 0.06 0  0.75 0.06 0  0.78 0.06 0  0.8100000000000001 0.06 0  0.84 0.06 0  0.87 0.06 0  0.9 0.06 0  0.93 0.06 0  0.96 0.06 0  0.99 0.06 0  1.02 0.06 0  1.05 0.06 0  1.08 0.06 0  1.11 0.06 0  1.14 0.06 0  1.17 0.06 0  1.2 0.06 0  1.23 0.06 0  1.26 0.06 0  1.29 0.06 0  1.32 0.06 0  1.35 0.06 0  1.38 0.06 0  1.41 0.06 0  1.44 0.06 0  1.47 0.06 0  1.5 0.06 0  0 0.08 0  0.03 0.08 0  0.06 0.08 0  0.09 0.08 0  0.12 0.08 0  0.15 0.08 0  0.18 0.08 0  0.21 0.08 0  0.24 0.08 0  0.27 0.08 0  0.3 0.08 0  0.33 0.08 0  0.36 0.08 0  0.39 0.08 0  0.42 0.08 0  0.45 0.08 0  0.48 0.08 0  0.51 0.08 0  0.54 0.08 0  0.57 0.08 0  0.6 0.08 0  0.63 0.08 0  0.66 0.08 0  0.6899999999999999 0.08 0  0.72 0.08 0  0.75 0.08 0  0.78 0.08 0  0.8100000000000001 0.08 0  0.84 0.08 0  0.87 0.08 0  0.9 0.08 0  0.93 0.08 0  0.96 0.08 0  0.99 0.08 0  1.02 0.08 0  1.05 0.08 0  1.08 0.08 0  1.11 0.08 0  1.14 0.08 0  1.17 0.08 0  1.2 0.08 0  1.23 0.08 0  1.26 0.08 0  1.29 0.08 0  1.32 0.08 0  1.35 0.08 0  1.38 0.08 0  1.41 0.08 0  1.44 0.08 0  1.47 0.08 0  1.5 0.08 0  0 0.1 0  0.03 0.1 0  0.06 0.1 0  0.09 0.1 0  0.12 0.1 0  0.15 0.1 0  0.18 0.1 0  0.21 0.1 0  0.24 0.1 0  0.27 0.1 0  0.3 0.1 0  0.33 0.1 0  0.36 0.1 0  0.39 0.1 0  0.42 0.1 0  0.45 0.1 0  0.48 0.1 0  0.51 0.1 0  0.54 0.1 0  0.57 0.1 0  0.6 0.1 0  0.63 0.1 0  0.66 0.1 0  0.6899999999999999 0.1 0  0.72 0.1 0  0.75 0.1 0  0.78 0.1 0  0.8100000000000001 0.1 0  0.84 0.1 0  0.87 0.1 0  0.9 0.1 0  0.93 0.1 0  0.96 0.1 0  0.99 0.1 0  1.02 0.1 0  1.05 0.1 0  1.08 0.1 0  1.11 0.1 0  1.14 0.1 0  1.17 0.1 0  1.2 0.1 0  1.23 0.1 0  1.26 0.1 0  1.29 0.1 0  1.32 0.1 0  1.35 0.1 0  1.38 0.1 0  1.41 0.1 0  1.44 0.1 0  1.47 0.1 0  1.5 0.1 0  0 0.12 0  0.03 0.12 0  0.06 0.12 0  0.09 0.12 0  0.12 0.12 0  0.15 0.12 0  0.18 0.12 0  0.21 0.12 0  0.24 0.12 0  0.27 0.12 0  0.3 0.12 0  0.33 0.12 0  0.36 0.12 0  0.39 0.12 0  0.42 0.12 0  0.45 0.12 0  0.48 0.12 0  0.51 0.12 0  0.54 0.12 0  0.57 0.12 0  0.6 0.12 0  0.63 0.12 0  0.66 0.12 0  0.6899999999999999 0.12 0  0.72 0.12 0  0.75 0.12 0  0.78 0.12 0  0.8100000000000001 0.12 0  0.84 0.12 0  0.87 0.12 0  0.9 0.12 0  0.93 0.12 0  0.96 0.12 0  0.99 0.12 0  1.02 0.12 0  1.05 0.12 0  1.08 0.12 0  1.11 0.12 0  1.14 0.12 0  1.17 0.12 0  1.2 0.12 0  1.23 0.12 0  1.26 0.12 0  1.29 0.12 0  1.32 0.12 0  1.35 0.12 0  1.38 0.12 0  1.41 0.12 0  1.44 0.12 0  1.47 0.12 0  1.5 0.12 0  0 0.14 0  0.03 0.14 0  0.06 0.14 0  0.09 0.14 0  0.12 0.14 0  0.15 0.14 0  0.18 0.14 0  0.21 0.14 0  0.24 0.14 0  0.27 0.14 0  0.3 0.14 0  0.33 0.14 0  0.36 0.14 0  0.39 0.14 0  0.42 0.14 0  0.45 0.14 0  0.48 0.14 0  0.51 0.14 0  0.54 0.14 0  0.57 0.14 0  0.6 0.14 0  0.63 0.14 0  0.66 0.14 0  0.6899999999999999 0.14 0  0.72 0.14 0  0.75 0.14 0  0.78 0.14 0  0.8100000000000001 0.14 0  0.84 0.14 0  0.87 0.14 0  0.9 0.14 0  0.93 0.14 0  0.96 0.14 0  0.99 0.14 0  1.02 0.14 0  1.05 0.14 0  1.08 0.14 0  1.11 0.14 0  1.14 0.14 0  1.17 0.14 0  1.2 0.14 0  1.23 0.14 0  1.26 0.14 0  1.29 0.14 0  1.32 0.14 0  1.35 0.14 0  1.38 0.14 0  1.41 0.14 0  1.44 0.14 0  1.47 0.14 0  1.5 0.14 0  0 0.16 0  0.03 0.16 0  0.06 0.16 0  0.09 0.16 0  0.12 0.16 0  0.15 0.16 0  0.18 0.16 0  0.21 0.16 0  0.24 0.16 0  0.27 0.16 0  0.3 0.16 0  0.33 0.16 0  0.36 0.16 0  0.39 0.16 0  0.42 0.16 0  0.45 0.16 0  0.48 0.16 0  0.51 0.16 0  0.54 0.16 0  0.57 0.16 0  0.6 0.16 0  0.63 0.16 0  0.66 0.16 0  0.6899999999999999 0.16 0  0.72 0.16 0  0.75 0.16 0  0.78 0.16 0  0.8100000000000001 0.16 0  0.84 0.16 0  0.87 0.16 0  0.9 0.16 0  0.93 0.16 0  0.96 0.16 0  0.99 0.16 0  1.02 0.16 0  1.05 0.16 0  1.08 0.16 0  1.11 0.16 0  1.14 0.16 0  1.17 0.16 0  1.2 0.16 0  1.23 0.16 0  1.26 0.16 0  1.29 0.16 0  1.32 0.16 0  1.35 0.16 0  1.38 0.16 0  1.41 0.16 0  1.44 0.16 0  1.47 0.16 0  1.5 0.16 0  0 0.18 0  0.03 0.18 0  0.06 0.18 0  0.09 0.18 0  0.12 0.18 0  0.15 0.18 0  0.18 0.18 0  0.21 0.18 0  0.24 0.18 0  0.27 0.18 0  0.3 0.18 0  0.33 0.18 0  0.36 0.18 0  0.39 0.18 0  0.42 0.18 0  0.45 0.18 0  0.48 0.18 0  0.51 0.18 0  0.54 0.18 0  0.57 0.18 0  0.6 0.18 0  0.63 0.18 0  0.66 0.18 0  0.6899999999999999 0.18 0  0.72 0.18 0  0.75 0.18 0  0.78 0.18 0  0.8100000000000001 0.18 0  0.84 0.18 0  0.87 0.18 0  0.9 0.18 0  0.93 0.18 0  0.96 0.18 0  0.99 0.18 0  1.02 0.18 0  1.05 0.18 0  1.08 0.18 0  1.11 0.18 0  1.14 0.18 0  1.17 0.18 0  1.2 0.18 0  1.23 0.18 0  1.26 0.18 0  1.29 0.18 0  1.32 0.18 0  1.35 0.18 0  1.38 0.18 0  1.41 0.18 0  1.44 0.18 0  1.47 0.18 0  1.5 0.18 0  0 0.2 0  0.03 0.2 0  0.06 0.2 0  0.09 0.2 0  0.12 0.2 0  0.15 0.2 0  0.18 0.2 0  0.21 0.2 0  0.24 0.2 0  0.27 0.2 0  0.3 0.2 0  0.33 0.2 0  0.36 0.2 0  0.39 0.2 0  0.42 0.2 0  0.45 0.2 0  0.48 0.2 0  0.51 0.2 0  0.54 0.2 0  0.57 0.2 0  0.6 0.2 0  0.63 0.2 0  0.66 0.2 0  0.6899999999999999 0.2 0  0.72 0.2 0  0.75 0.2 0  0.78 0.2 0  0.8100000000000001 0.2 0  0.84 0.2 0  0.87 0.2 0  0.9 0.2 0  0.93 0.2 0  0.96 0.2 0  0.99 0.2 0  1.02 0.2 0  1.05 0.2 0  1.08 0.2 0  1.11 0.2 0  1.14 0.2 0  1.17 0.2 0  1.2 0.2 0  1.23 0.2 0  1.26 0.2 0  1.29 0.2 0  1.32 0.2 0  1.35 0.2 0  1.38 0.2 0  1.41 0.2 0  1.44 0.2 0  1.47 0.2 0  1.5 0.2 0  0 0.22 0  0.03 0.22 0  0.06 0.22 0  0.09 0.22 0  0.12 0.22 0  0.15 0.22 0  0.18 0.22 0  0.21 0.22 0  0.24 0.22 0  0.27 0.22 0  0.3 0.22 0  0.33 0.22 0  0.36 0.22 0  0.39 0.22 0  0.42 0.22 0  0.45 0.22 0  0.48 0.22 0  0.51 0.22 0  0.54 0.22 0  0.57 0.22 0  0.6 0.22 0  0.63 0.22 0  0.66 0.22 0  0.6899999999999999 0.22 0  0.72 0.22 0  0.75 0.22 0  0.78 0.22 0  0.8100000000000001 0.22 0  0.84 0.22 0  0.87 0.22 0  0.9 0.22 0  0.93 0.22 0  0.96 0.22 0  0.99 0.22 0  1.02 0.22 0  1.05 0.22 0  1.08 0.22 0  1.11 0.22 0  1.14 0.22 0  1.17 0.22 0  1.2 0.22 0  1.23 0.22 0  1.26 0.22 0  1.29 0.22 0  1.32 0.22 0  1.35 0.22 0  1.38 0.22 0  1.41 0.22 0  1.44 0.22 0  1.47 0.22 0  1.5 0.22 0  0 0.24 0  0.03 0.24 0  0.06 0.24 0  0.09 0.24 0  0.12 0.24 0  0.15 0.24 0  0.18 0.24 0  0.21 0.24 0  0.24 0.24 0  0.27 0.24 0  0.3 0.24 0  0.33 0.24 0  0.36 0.24 0  0.39 0.24 0  0.42 0.24 0  0.45 0.24 0  0.48 0.24 0  0.51 0.24 0  0.54 0.24 0  0.57 0.24 0  0.6 0.24 0  0.63 0.24 0  0.66 0.24 0  0.6899999999999999 0.24 0  0.72 0.24 0  0.75 0.24 0  0.78 0.24 0  0.8100000000000001 0.24 0  0.84 0.24 0  0.87 0.24 0  0.9 0.24 0  0.93 0.24 0  0.96 0.24 0  0.99 0.24 0  1.02 0.24 0  1.05 0.24 0  1.08 0.24 0  1.11 0.24 0  1.14 0.24 0  1.17 0.24 0  1.2 0.24 0  1.23 0.24 0  1.26 0.24 0  1.29 0.24 0  1.32 0.24 0  1.35 0.24 0  1.38 0.24 0  1.41 0.24 0  1.44 0.24 0  1.47 0.24 0  1.5 0.24 0  0 0.26 0  0.03 0.26 0  0.06 0.26 0  0.09 0.26 0  0.12 0.26 0  0.15 0.26 0  0.18 0.26 0  0.21 0.26 0  0.24 0.26 0  0.27 0.26 0  0.3 0.26 0  0.33 0.26 0  0.36 0.26 0  0.39 0.26 0  0.42 0.26 0  0.45 0.26 0  0.48 0.26 0  0.51 0.26 0  0.54 0.26 0  0.57 0.26 0  0.6 0.26 0  0.63 0.26 0  0.66 0.26 0  0.6899999999999999 0.26 0  0.72 0.26 0  0.75 0.26 0  0.78 0.26 0  0.8100000000000001 0.26 0  0.84 0.26 0  0.87 0.26 0  0.9 0.26 0  0.93 0.26 0  0.96 0.26 0  0.99 0.26 0  1.02 0.26 0  1.05 0.26 0  1.08 0.26 0  1.11 0.26 0  1.14 0.26 0  1.17 0.26 0  1.2 0.26 0  1.23 0.26 0  1.26 0.26 0  1.29 0.26 0  1.32 0.26 0  1.35 0.26 0  1.38 0.26 0  1.41 0.26 0  1.44 0.26 0  1.47 0.26 0  1.5 0.26 0  0 0.28 0  0.03 0.28 0  0.06 0.28 0  0.09 0.28 0  0.12 0.28 0  0.15 0.28 0  0.18 0.28 0  0.21 0.28 0  0.24 0.28 0  0.27 0.28 0  0.3 0.28 0  0.33 0.28 0  0.36 0.28 0  0.39 0.28 0  0.42 0.28 0  0.45 0.28 0  0.48 0.28 0  0.51 0.28 0  0.54 0.28 0  0.57 0.28 0  0.6 0.28 0  0.63 0.28 0  0.66 0.28 0  0.6899999999999999 0.28 0  0.72 0.28 0  0.75 0.28 0  0.78 0.28 0  0.8100000000000001 0.28 0  0.84 0.28 0  0.87 0.28 0  0.9 0.28 0  0.93 0.28 0  0.96 0.28 0  0.99 0.28 0  1.02 0.28
[...]
<PointData  Scalars="sensitivity"> 
<DataArray  type="Float64"  Name="sensitivity"  format="ascii">-1.2437721502346087e-06  -1.7914976927646196e-05  -7.4496729213011317e-05  -1.8952321006103785e-04  -3.6328887173695088e-04  -5.7353446511315090e-04  -7.8901866567497863e-04  -9.8370852790028471e-04  -1.1425567265481514e-03  -1.2606047555009153e-03  -1.3394042519387964e-03  -1.3838023737359965e-03  -1.3999857740364292e-03  -1.3944006840449755e-03  -1.3731315032726016e-03  -1.3415614971192724e-03  -1.3042270484620565e-03  -1.2647922692767546e-03  -1.2260927176013950e-03  -1.1902216232661026e-03  -1.1586449058109784e-03  -1.1323320991967786e-03  -1.1118871750200356e-03  -1.0976634784967182e-03  -1.0898523835588154e-03  -1.0885423647284196e-03  -1.0937499666492773e-03  -1.1054250529368239e-03  -1.1234308322663246e-03  -1.1474966746341064e-03  -1.1771412058380934e-03  -1.2115665313615898e-03  -1.2495311549008030e-03  -1.2892153003675804e-03  -1.3280945118270592e-03  -1.3628362657499055e-03  -1.3892355361946869e-03  -1.4022142284505715e-03  -1.3959266034725411e-03  -1.3640382393658968e-03  -1.3002053532856219e-03  -1.1989096909807112e-03  -1.0569824132596612e-03  -8.7635109933424519e-04  -6.6761280078638159e-04  -4.5189425943787694e-04  -2.5870061807699947e-04  -1.1666741046191524e-04  -3.6852859199141907e-05  -5.2462288068843138e-06  -4.6102655359351893e-08  -9.1060457303371930e-06  -7.4915690592947069e-05  -2.9836342656011167e-04  -7.8381080961636832e-04  -1.5506196629703135e-03  -2.5107294322482586e-03  -3.5220623584083402e-03  -4.4563430150410376e-03  -5.2333379810915381e-03  -5.8218942260875230e-03  -6.2244055692758206e-03  -6.4610039180400831e-03  -6.5595756015975849e-03  -6.5501774484070874e-03  -6.4617470776589447e-03  -6.3202346331473272e-03  -6.1477409075339487e-03  -5.9622917224204010e-03  -5.7779744466583891e-03  -5.6052936470174508e-03  -5.4516794235288215e-03  -5.3220922113047771e-03  -5.2196490050419563e-03  -5.1461899982189144e-03  -5.1027270866820995e-03  -5.0897519290340077e-03  -5.1074087266938682e-03  -5.1555448816386559e-03  -5.2336448069550462e-03  -5.3406388308657095e-03  -5.4745727403403754e-03  -5.6321354135371983e-03  -5.8080733508821701e-03  -5.9945562034805170e-03  -6.1805724245478652e-03  -6.3514191209541552e-03  -6.4883568288560617e-03  -6.5685325840230619e-03  -6.5653881152585424e-03  -6.4497655350533693e-03  -6.1918772917635640e-03  -5.7647148061225548e-03  -5.1500914523615838e-03  -4.3493930786692491e-03  -3.4004350235726285e-03  -2.3893797671441837e-03  -1.4447652556663555e-03  -7.0690447699107897e-04  -2.5795629199817439e-04  -6.1365892945869813e-05  -3.4570469918054678e-06  -2.6186900064943366e-05  -1.4551731530246234e-04  -4.3505066153867549e-04  -1.0491659214485031e-03  -1.9904951406062646e-03  -3.1366073487196612e-03  -4.3210656002889520e-03  -5.4003424805056230e-03  -6.2880250770313830e-03  -6.9542806165254724e-03  -7.4050769304522517e-03  -7.6642233127638803e-03  -7.7638235506166681e-03  -7.7386982806919476e-03  -7.6225336864036266e-03  -7.4455903102384922e-03  -7.2336809014249218e-03  -7.0078994432437635e-03  -6.7847412119983862e-03  -6.5764688781842036e-03  -6.3916802731179573e-03  -6.2360271349581114e-03  -6.1129851165644625e-03  -6.0245553668665745e-03  -5.9718124714283364e-03  -5.9552722472257747e-03  -5.9750944073862023e-03  -6.0311443336253639e-03  -6.1229234428144446e-03  -6.2493549628780077e-03  -6.4083980137343913e-03  -6.5964768728209913e-03  -6.8077607089129903e-03  -7.0333928405485659e-03  -7.2607759709020850e-03  -7.4729830503529378e-03  -7.6483855612719453e-03  -7.7605561025861150e-03  -7.7787399288029423e-03  -7.6689980880451213e-03  -7.3969649833938549e-03  -6.9312000494469042e-03  -6.2487319294461394e-03  -5.3440165009201908e-03  -4.2523896512146244e-03  -3.0671911656042460e-03  -1.9257351262372223e-03  -9.9164301686724583e-04  -3.9627578699255676e-04  -1.2927913051578486e-04  -1.5838637106368675e-05  -4.2658775383526751e-05  -2.4586328642427940e-04  -6.4675791794786082e-04  -1.4033123469354241e-03  -2.4506474222526363e-03  -3.6376160438431372e-03  -4.8147668091903769e-03  -5.8533274184219188e-03  -6.6835207166266591e-03  -7.2922526235735391e-03  -7.6921500742304170e-03  -7.9068688023421225e-03  -7.9674540678659114e-03  -7.9082042558923649e-03  -7.7624332923340268e-03  -7.5600065672725390e-03  -7.3264095919610842e-03  -7.0825163376356430e-03  -6.8446404628368330e-03  -6.6248004155398067e-03  -6.4312341841304358e-03  -6.2691482789616485e-03  -6.1415715997625818e-03  -6.0501349714991645e-03  -5.9956561373879277e-03  -5.9785083578426674e-03  -5.9988112484347048e-03  -6.0564877459851185e-03  -6.1512032097375104e-03  -6.2821652562031517e-03  -6.4477345990961010e-03  -6.6448093057953827e-03  -6.8680192694346338e-03  -7.1088842437436071e-03  -7.3550799728463881e-03  -7.5899257962011475e-03  -7.7920750791910772e-03  -7.9353137702743836e-03  -7.9890282001293961e-03  -7.9195542207762849e-03  -7.6945871995349182e-03  -7.2826740034748969e-03  -6.6600526219990890e-03  -5.8109333688814869e-03  -4.7547884667877658e-03  -3.5760693764836124e-03  -2.3879012301680864e-03  -1.3297104358492822e-03  -5.7636143184563418e-04  -2.0910567121038717e-04  -3.3083618324541120e-05  -3.9643650759401024e-05  -3.7040082080706316e-04  -1.0668765070633998e-03  -2.1198349977928489e-03  -3.2847287194246373e-03  -4.4465492996755536e-03  -5.5518532257790038e-03  -6.4799713359152758e-03  -7.1904340484503703e-03  -7.6968490615786263e-03  -8.0132167993693104e-03  -8.1575745118613163e-03  -8.1581315580381061e-03  -8.0481878646701307e-03  -7.8600390681992927e-03  -7.6223899388515280e-03  -7.3597833224832250e-03  -7.0924532010977811e-03  -6.8362280624787598e-03  -6.6025947081353514e-03  -6.3991006423656186e-03  -6.2301509761947685e-03  -6.0980096260778941e-03  -6.0037042220654957e-03  -5.9476538028931042e-03  -5.9300180206835933e-03  -5.9508550180287752e-03  -6.0101658410821488e-03  -6.1078516803849264e-03  -6.2435504834692989e-03  -6.4162641938692458e-03  -6.6236836682057069e-03  -6.8612364014503501e-03  -7.1211090272719586e-03  -7.3915428793710613e-03  -7.6564809720073802e-03  -7.8951289403849951e-03  -8.0820674438011365e-03  -8.1877462241619989e-03  -8.1798170821732602e-03  -8.0271275977869035e-03  -7.6989618687627135e-03  -7.1850963082352066e-03  -6.4652323975914680e-03  -5.5103761538889198e-03  -4.4060660014039327e-03  -3.2542337040889070e-03  -2.0531662379077447e-03  -9.5764190942038911e-04  -2.7695106643308825e-04  -3.9327409635354403e-05  -4.3855760604391129e-05  -6.9938552154193980e-04  -2.6512588849817668e-03  -4.9975569265987806e-03  -6.0939186535167210e-03  -6.5094830250936909e-03  -6.9453312996689380e-03  -7.4314197290379575e-03  -7.8788696128199096e-03  -8.2264495235765574e-03  -8.4299927677490057e-03  -8.4803957263744172e-03  -8.4006978908284704e-03  -8.2235061678650970e-03  -7.9795793732537566e-03  -7.6957227845495879e-03  -7.3950970670848253e-03  -7.0971284894947315e-03  -6.8170943371626781e-03  -6.5658273228492801e-03  -6.3499075695402007e-03  -6.1725587291643590e-03  -6.0349296843960568e-03  -5.9372088480558064e-03  -5.8792936315171258e-03  -5.8610793214214337e-03  -5.8825490493977098e-03  -5.9437943294618429e-03  -6.0450053093120387e-03  -6.1863830099859358e-03  -6.3678269363930933e-03  -6.5881870757181979e-03  -6.8440614246719784e-03  -7.1285275485785150e-03  -7.4305701754236566e-03  -7.7347344533307983e-03  -8.0210296977561765e-03  -8.2665687506599441e-03  -8.4417521467134160e-03  -8.5140350839594502e-03  -8.4524150553985551e-03  -8.2667182360922457e-03  -7.9682655916228293e-03  -7.6309171819232196e-03  -7.2437768089041498e-03  -6.9459973105491582e-03  -6.4152755358178899e-03  -4.4128641222651796e-03  -1.8969587886120223e-03  -3.8643906715549615e-04  -2.6293190730547899e-05  -5.3874253406999628e-04  -2.9990770376083775e-03  -1.0760812064826613e-02  -1.9456272198276833e-02  -2.2058512346284701e-02  -1.8618657081353986e-02  -1.3708370675622196e-02  -1.0248936560103715e-02  -9.0514970000787134e-03  -8.9377961990395726e-03  -8.9562155369887191e-03  -8.8802003847836455e-03  -8.6976830010178363e-03  -8.4362701141774358e-03  -8.1233345492519454e-03  -7.7823053390940261e-03  -7.4345082808149904e-03  -7.0985208654604625e-03  -6.7891567928063104e-03  -6.5165778710334875e-03  -6.2860674345791229e-03  -6.0991383471810734e-03  -5.9553643375308586e-03  -5.8538348796654616e-03  -5.7938291833457304e-03  -5.7749571980145291e-03  -5.7971237106203286e-03  -5.8605091543196637e-03  -5.9656132720263500e-03  -6.1133062442174733e-03  -6.3046804342259876e-03  -6.5402480506639863e-03  -6.8183218341327798e-03  -7.1330075537290264e-03  -7.4740541630131134e-03  -7.8265803972537365e-03  -8.1730468507246936e-03  -8.4920651983573636e-03  -8.7510476404547583e-03  -8.9357484272272070e-03  -9.0252412266168067e-03  -9.1590572296466402e-03  -9.5948849748990119e-03  -1.1186876583912294e-02  -1.3985932817372870e-02  -1.8134215924246331e-02  -2.2035862469626580e-02  -2.0055987114026255e-02  -1.1848261249249405e-02  -2.4504018541794568e-03  -9.0785735150438184e-05  -1.7380223430963279e-03  -1.8329530636832115e-02  -3.1161556281339847e-02  -3.1346917314194978e-02  -3.1301159748977618e-02  -3.1132291163562302e-02  -3.0637082717623748e-02  -2.4539170365609545e-02  -1.4773637124381357e-02  -1.0673594265221312e-02  -9.7155654529682851e-03  -9.3749643261223682e-03  -9.0484671916879113e-03  -8.6839919570671151e-03  -8.2891912224999902e-03  -7.8801078620595356e-03  -7.4758531782573700e-03  -7.0942811716246772e-03  -6.7500494797959124e-03  -6.4528593662323440e-03  -6.2062523602336370e-03  -6.0092032462517033e-03  -5.8590723438496093e-03  -5.7535853898011890e-03  -5.6913732727135744e-03  -5.6717939897721467e-03  -5.6946871317213356e-03  -5.7602978825021722e-03  -5.8693959395295248e-03  -6.0235576632292507e-03  -6.2253917550766447e-03  -6.4777874046265662e-03  -6.7816339042503643e-03  -7.1321492906341044e-03  -7.5197911707160581e-03  -7.9307106758636538e-03  -8.3492191797500028e-03  -8.7516631962243057e-03  -9.1384978168203637e-03  -9.5229709861394344e-03  -1.0008060421462732e-02  -1.1641537125707492e-02  -1.5316223861594820e-02  -2.3277602346711366e-02  -3.0327866572241725e-02  -3.1080709978001022e-02  -3.1337808109739296e-02  -3.1317701131587633e-02  -3.1117902174221952e-02  -1.8510217246253406e-02  -1.5468761279704697e-03  -9.2122161008307401e-03  -3.1367892881500221e-02  -3.1450548835745072e-02  -3.1462072057348016e-02  -3.1457734739075004e-02  -3.1430073142812445e-02  -3.1352121886158352e-02  -3.1234972156937334e-02  -3.0096836873665100e-02  -1.9790064895952808e-02  -1.2394811014392663e-02  -1.0193455603265478e-02  -9.4816430757133589e-03  -8.9676511686512424e-03  -8.4758156960727127e-03  -7.9869294919194273e-03  -7.5165510889529863e-03  -7.0813831851046808e-03  -6.6964744569513613e-03  -6.3718808809032461e-03  -6.1086834006674725e-03  -5.9018829986952530e-03  -5.7457253840371026e-03  -5.6363758759241361e-03  -5.5719313917600988e-03  -5.5516195611726073e-03  -5.5752482878135383e-03  -5.6430712277785672e-03  -5.7559959447692054e-03  -5.9161837356911402e-03  -6.1280109833811011e-03  -6.3978440566881704e-03  -6.7308114907799303e-03  -7.1237242444085495e-03  -7.5652332676933321e-03  -8.0449988856902740e-03  -8.5465013190812837e-03  -9.0730408474389464e-03  -9.7094637061893429e-03  -1.0748435972700789e-02  -1.3260061740373018e-02  -1.9558997706124480e-02  -2.9533116832868179e-02  -3.1117114845291321e-02  -3.1357025779081192e-02  -3.1420370338592553e-02  -3.1452916308609746e-02  -3.1462229666871885e-02  -3.1441948149643746e-02  -3.1407231677266001e-02  -6.9310758260314638e-03  -1.5747784594341230e-02  -3.1515545421373851e-02  -3.1511370330466963e-02  -3.1497169874927518e-02  -3.1486710498693421e-02  -3.1468917784092984e-02  -3.1442249765980174e-02  -3.1431175061986588e-02  -3.1363702580563924e-02  -3.1021080565968081e-02  -2.4639476300989466e-02  -1.4173936417342617e-02  -1.0435613238191475e-02  -9.3523909873927877e-03  -8.6946132033569080e-03  -8.1027935350612354e-03  -7.5547986862561575e-03  -7.0567609673663663e-03  -6.6242604102704963e-03  -6.2701590485662725e-03  -5.9914962822998023e-03  -5.7765692787079565e-03  -5.6152922249418655e-03  -5.5023395140772124e-03  -5.4356646901083348e-03  -5.4146051102500811e-03  -5.4389861489552117e-03  -5.5089882871663188e-03  -5.6254069602907986e-03  -5.7905444046916135e-03  -6.0105018480276868e-03  -6.2969664925082731e-03  -6.6619969276604562e-03  -7.1064115036288842e-03  -7.6067899423422078e-03  -8.1815240673928629e-03  -8.8031002588820836e-03  -9.6149521800122199e-03  -1.1309883362752092e-02  -1.4934170443686744e-02  -2.3393021031204140e-02  -3.0735553381450235e-02  -3.1336745454464167e-02  -3.1419612294847056e-02  -3.1432502749252210e-02  -3.1465037024261053e-02  -3.1490437837586080e-02  -3.1501534774238379e-02  -3.1508625715585298e-02  -3.1522588643151821e-02  -1.5748949095280282e-02  -1.8480448873930432e-02  -3.2008716305063641e-02  -3.1545355335873083e-02  -3.1522565261714361e-02  -3.1514502459732606e-02  -3.1497044008627136e-02  -3.1478226243995530e-02  -3.1457195461928794e-02  -3.1448612754493711e-02  -3.1378325163968886e-02  -3.1083021112968880e-02  -2.8387370873323249e-02  -1.6307401201233442e-02  -1.0792680220906011e-02  -9.1144045959577116e-03  -8.2600509852936259e-03  -7.6000216287165131e-03  -7.0216726025999583e-03  -6.5296496912613669e-03  -6.1445578735624005e-03  -5.8540021871530757e-03  -5.6340618575322163e-03  -5.4689252905401192e-03  -5.3525354694442659e-03  -5.2835358733307088e-03  -5.2617105525473943e-03  -5.2869464056342240e-03  -5.3592594479427141e-03  -5.4789824952704612e-03  -5.6476997022900897e-03  -5.8723289653965331e-03  -6.1727330769318339e-03  -6.5726567912291521e-03  -7.0927660025055014e-03  -7.6703428498273770e-03  -8.4240269410435116e-03  -9.4509674166062506e-03  -1.1841282530542202e-02  -1.6812893615058666e-02  -2.6980603789603933e-02  -3.1111532488821647e-02  -3.1353638750295579e-02  -3.1418643040366935e-02  -3.1461813866509439e-02  -3.1484152922106635e-02  -3.1497288475509956e-02  -3.1508440417636320e-02  -3.1513206527694300e-02  -3.1547837879611025e-02  -3.2317564284318763e-02  -1.6879797923051314e-02  -2.8590227723828233e-02  -4.6322873062258275e-02  -3.5821059095055716e-02  -3.1610280866364304e-02  -3.1534936750328896e-02  -3.1513401655073985e-02  -3.1504053055576707e-02  -3.1487486149081055e-02  -3.1463911511437827e-02  -3.1439336693608426e-02  -3.1371834613997548e-02  -3.1196771375510690e-02  -3.0134564068767973e-02  -2.0054651517451769e-02  -1.2080386327020114e-02  -9.0103401072405866e-03  -7.8299147327182197e-03  -7.0445545087519292e-03  -6.4410819995125339e-03  -6.0139729816415808e-03  -5.7131298400867414e-03  -5.4894962642896708e-03  -5.3196688721354104e-03  -5.1984981350593857e-03  -5.1264009792917186e-03  -5.1037602923415526e-03  -5.1305132915508544e-03  -5.2065258564036147e-03  -5.3318582085354720e-03  -5.5067322504163910e-03  -5.7360764464776679e-03  -6.0541234074632539e-03  -6.5095558313879179e-03  -7.1979557073641254e-03  -8.0425850292458450e-03  -9.7682638913093294e-03  -1.3000205727994572e-02  -1.9654470537928913e-02  -2.9577500801331126e-02  -3.1157617549628241e-02  -3.1383779807565806e-02  -3.1424701009297160e-02  -3.1467155485323438e-02  -3.1487105014253509e-02  -3.1499950661923341e-02  -3.1508037079452066e-02  -3.1521234777387643e-02  -3.1671939612878973e-02  -3.7829911674963787e-02  -4.8078775370458494e-02  -2.5247128903678098e-02  -3.5118620168110438e-02  -6.0599567735088893e-02  -4.6090122589187710e-02  -3.5450055548972847e-02  -3.1612855592511938e-02  -3.1534826200103075e-02  -3.1512989572793533e-02  -3.1506000730064050e-02  -3.1491947990198881e-02  -3.1465019152159733e-02  -3.1436630927015201e-02  -3.1414645765240445e-02  -3.1322354570050531e-02  -3.0897214186429135e-02  -2.6503085823582979e-02  -1.6549159016573986e-02  -1.0993956942624540e-02  -8.3225033716644772e-03  -7.0062339114567301e-03  -6.2988432631196764e-03  -5.8706324818938440e-03  -5.5774550126892076e-03  -5.3637232111401626e-03  -5.2158976306101862e-03  -5.1307629060654393e-03  -5.1058791826366946e-03  -5.1404707854969343e-03  -5.2360263553923904e-03  -5.3980991459746447e-03  -5.6342163666093219e-03  -5.9587988422084813e-03  -6.4626336050477963e-03  -7.3248547251627844e-03  -9.0719034724735994e-03  -1.1726273076086827e-02  -1.6404620416991037e-02  -2.5388963390487226e-02  -3.0741426219469851e-02  -3.1331853806920704e-02  -3.1411831480715413e-02  -3.1433040166619686e-02  -3.1473382706847831e-02  -3.1488307748354587e-02  -3.1497001530902922e-02  -3.1510567049970524e-02  -3.1527086502450570e-02  -3.1668196242979001e-02  -3.6466228891469998e-02  -4.6533408361444310e-02  -6.0561319486152877e-02  -3.3710733833737447e-02  -3.4053596581998968e-02  -6.2948760874051782e-02  -5.0497255174040967e-02  -3.9933301557150934e-02  -3.3066560575523853e-02  -3.1577565457416572e-02  -3.1530578005255980e-02  -3.1509229031395060e-02  -3.1505278666725221e-02  -3.1493981836325805e-02  -3.1468060846247405e-02  -3.1444125357993180e-02  -3.1435945511882342e-02  -3.1375809823720603e-02  -3.1229164913751373e-02  -3.0701881913430741e-02  -2.7386823514982447e-02  -2.0183533389109953e-02  -1.5182525941399204e-02  -1.2370582555568685e-02  -1.0691582173833262e-02  -9.6181813559844207e-03  -8.9221319005527329e-03  -8.4975350784472648e-03  -8.2754996903372895e-03  -8.2175048279882722e-03  -8.3115357122841640e-03  -8.5683500591496337e-03  -9.0287656267300492e-03  -9.7500807313558816e-03  -1.0796384773603144e-02  -1.2441154258030166e-02  -1.5084013281670573e-02  -1.9787127458352673e-02  -2.6785902931807194e-02  -3.0462789727327834e-02  -3.1161539176412401e-02  -3.1326374492619609e-02  -3.1404950735545521e-02  -3.1452690440090310e-02  -3.1481863345851124e-02  -3.1490495570095929e-02  -3.1493422666354479e-02  -3.1508134761695616e-02  -3.1524891570050229e-02  -3.1590696086493772e-02  -3.3518690288026252e-02  -3.9868274962019098e-02  -4.9855976572110591e-02  -6.2182260802513288e-02  -3.5217277229100549e-02  -2.5861430929674949e-02  -5.2540203992132745e-02  -4.5957961996199198e-02  -3.9591690409692841e-02  -3.4436535736546370e-02  -3.1750117332571756e-02  -3.1559873871087211e-02  -3.1519589199251317e-02  -3.1506195353670739e-02  -3.1504170255660817e-02  -3.1496658470768324e-02  -3.1475022224466527e-02  -3.1451032457941647e-02  -3.1438815408280175e-02  -3.1427424219396996e-02  -3.1381523451883636e-02  -3.1291989743395129e-02  -3.1040535076162386e-02  -3.0948018671698795e-02  -3.0515095555033695e-02  -2.9986788327570704e-02  -2.9358253175347102e-02  -2.8613825547152253e-02  -2.8002602866671243e-02  -2.7622286784592501e-02  -2.7486668445400961e-02  -2.7598733062717280e-02  -2.7951438382246122e-02  -2.8528637921836301e-02  -2.9279458549060652e-02  -2.9962383057680089e-02  -3.0414701433670841e-02  -3.0913150389274873e-02  -3.1024190431608624e-02  -3.1304996223524346e-02  -3.1364030339230513e-02  -3.1409958879334898e-02  -3.1418382467063521e-02  -3.1450778950913361e-02  -3.1482639041252619e-02  -3.1492638843619004e-02  -3.1493615827659499e-02  -3.1499904447219743e-02  -3.1522744909489690e-02  -3.1553195848451343e-02  -3.1805905434064606e-02  -3.4304686645661830e-02  -3.8850450334447874e-02  -4.4814025575426179e-02  -5.1262644750766265e-02  -2.9101092582217960e-02  -1.6887521024039134e-02  -3.6329059213829083e-02  -3.6015161661448310e-02  -3.4840161695466311e-02  -3.3230582318374641e-02  -3.1889391521162894e-02  -3.1600041784017222e-02  -3.1544564111021842e-02  -3.1512798963709163e-02  -3.1504106930785807e-02  -3.1504347157547581e-02  -3.1500966732215072e-02  -3.1484812949739822e-02  -3.1462317492033230e-02  -3.1447368534237255e-02  -3.1443523043443382e-02  -3.1449640690516575e-02  -3.1428606615806320e-02  -3.1400930572926103e-02  -3.1395829884977307e-02  -3.1366296856692920e-02  -3.1365150490823730e-02  -3.1357825248526372e-02  -3.1337592935436899e-02  -3.1334626076887646e-02  -3.1338352563621802e-02  -3.1339551292581126e-02  -3.1338837877608175e-02  -3.1342495565969838e-02  -3.1362818253170104e-02  -3.1376681327173604e-02  -