<?xml version="1.0"?>
<VTKFile type="UnstructuredGrid"  version="0.1"  >
<UnstructuredGrid>
<Piece  NumberOfPoints="2601" NumberOfCells="5000">
<Points>
<DataArray  type="Float64"  NumberOfComponents="3"  format="ascii">0 0 0  0.03 0 0  0.06 0 0  0.09 0 0  0.12 0 0  0.15 0 0  0.18 0 0  0.21 0 0  0.24 0 0  0.27 0 0  0.3 0 0  0.33 0 0  0.36 0 0  0.39 0 0  0.42 0 0  0.45 0 0  0.48 0 0  0.51 0 0  0.54 0 0  0.57 0 0  0.6 0 0  0.63 0 0  0.66 0 0  0.6899999999999999 0 0  0.72 0 0  0.75 0 0  0.78 0 0  0.8100000000000001 0 0  0.84 0 0  0.87 0 0  0.9 0 0  0.93 0 0  0.96 0 0  0.99 0 0  1.02 0 0  1.05 0 0  1.08 0 0  1.11 0 0  1.14 0 0  1.17 0 0  1.2 0 0  1.23 0 0  1.26 0 0  1.29 0 0  1.32 0 0  1.35 0 0  1.38 0 0  1.41 0 0  1.44 0 0  1.47 0 0  1.5 0 0  0 0.02 0  0.03 0.02 0  0.06 0.02 0  0.09 0.02 0  0.12 0.02 0  0.15 0.02 0  0.18 0.02 0  0.21 0.02 0  0.24 0.02 0  0.27 0.02 0  0.3 0.02 0  0.33 0.02 0  0.36 0.02 0  0.39 0.02 0  0.42 0.02 0  0.45 0.02 0  0.48 0.02 0  0.51 0.02 0  0.54 0.02 0  0.57 0.02 0  0.6 0.02 0  0.63 0.02 0  0.66 0.02 0  0.6899999999999999 0.02 0  0.72 0.02 0  0.75 0.02 0  0.78 0.02 0  0.8100000000000001 0.02 0  0.84 0.02 0  0.87 0.02 0  0.9 0.02 0  0.93 0.02 0  0.96 0.02 0  0.99 0.02 0  1.02 0.02 0  1.05 0.02 0  1.08 0.02 0  1.11 0.02 0  1.14 0.02 0  1.17 0.02 0  1.2 0.02 0  1.23 0.02 0  1.26 0.02 0  1.29 0.02 0  1.32 0.02 0  1.35 0.02 0  1.38 0.02 0  1.41 0.02 0  1.44 0.02 0  1.47 0.02 0  1.5 0.02 0  0 0.04 0  0.03 0.04 0  0.06 0.04 0  0.09 0.04 0  0.12 0.04 0  0.15 0.04 0  0.18 0.04 0  0.21 0.04 0  0.24 0.04 0  0.27 0.04 0  0.3 0.04 0  0.33 0.04 0  0.36 0.04 0  0.39 0.04 0  0.42 0.04 0  0.45 0.04 0  0.48 0.04 0  0.51 0.04 0  0.54 0.04 0  0.57 0.04 0  0.6 0.04 0  0.63 0.04 0  0.66 0.04 0  0.6899999999999999 0.04 0  0.72 0.04 0  0.75 0.04 0  0.78 0.04 0  0.8100000000000001 0.04 0  0.84 0.04 0  0.87 0.04 0  0.9 0.04 0  0.93 0.04 0  0.96 0.04 0  0.99 0.04 0  1.02 0.04 0  1.05 0.04 0  1.08 0.04 0  1.11 0.04 0  1.14 0.04 0  1.17 0.04 0  1.2 0.04 0  1.23 0.04 0  1.26 0.04 0  1.29 0.04 0  1.32 0.04 0  1.35 0.04 0  1.38 0.04 0  1.41 0.04 0  1.44 0.04 0  1.47 0.04 0  1.5 0.04 0  0 0.06 0  0.03 0.06 0  0.06 0.06 0  0.09 0.06 0  0.12 0.06 0  0.15 0.06 0  0.18 0.06 0  0.21 0.06 0  0.24 0.06 0  0.27 0.06 0  0.3 0.06 0  0.33 0.06 0  0.36 0.06 0  0.39 0.06 0  0.42 0.06 0  0.45 0.06 0  0.48 0.06 0  0.51 0.06 0  0.54 0.06 0  0.57 0.06 0  0.6 0.06 0  0.63 0.06 0  0.66 0.06 0  0.6899999999999999 0.06 0  0.72 0.06 0  0.75 0.06 0  0.78 0.06 0  0.8100000000000001 0.06 0  0.84 0.06 0  0.87 0.06 0  0.9 0.06 0  0.93 0.06 0  0.96 0.06 0  0.99 0.06 0  1.02 0.06 0  1.05 0.06 0  1.08 0.06 0  1.11 0.06 0  1.14 0.06 0  1.17 0.06 0  1.2 0.06 0  1.23 0.06 0  1.26 0.06 0  1.29 0.06 0  1.32 0.06 0  1.35 0.06 0  1.38 0.06 0  1.41 0.06 0  1.44 0.06 0  1.47 0.06 0  1.5 0.06 0  0 0.08 0  0.03 0.08 0  0.06 0.08 0  0.09 0.08 0  0.12 0.08 0  0.15 0.08 0  0.18 0.08 0  0.21 0.08 0  0.24 0.08 0  0.27 0.08 0  0.3 0.08 0  0.33 0.08 0  0.36 0.08 0  0.39 0.08 0  0.42 0.08 0  0.45 0.08 0  0.48 0.08 0  0.51 0.08 0  0.54 0.08 0  0.57 0.08 0  0.6 0.08 0  0.63 0.08 0  0.66 0.08 0  0.6899999999999999 0.08 0  0.72 0.08 0  0.75 0.08 0  0.78 0.08 0  0.8100000000000001 0.08 0  0.84 0.08 0  0.87 0.08 0  0.9 0.08 0  0.93 0.08 0  0.96 0.08 0  0.99 0.08 0  1.02 0.08 0  1.05 0.08 0  1.08 0.08 0  1.11 0.08 0  1.14 0.08 0  1.17 0.08 0  1.2 0.08 0  1.23 0.08 0  1.26 0.08 0  1.29 0.08 0  1.32 0.08 0  1.35 0.08 0  1.38 0.08 0  1.41 0.08 0  1.44 0.08 0  1.47 0.08 0  1.5 0.08 0  0 0.1 0  0.03 0.1 0  0.06 0.1 0  0.09 0.1 0  0.12 0.1 0  0.15 0.1 0  0.18 0.1 0  0.21 0.1 0  0.24 0.1 0  0.27 0.1 0  0.3 0.1 0  0.33 0.1 0  0.36 0.1 0  0.39 0.1 0  0.42 0.1 0  0.45 0.1 0  0.48 0.1 0  0.51 0.1 0  0.54 0.1 0  0.57 0.1 0  0.6 0.1 0  0.63 0.1 0  0.66 0.1 0  0.6899999999999999 0.1 0  0.72 0.1 0  0.75 0.1 0  0.78 0.1 0  0.8100000000000001 0.1 0  0.84 0.1 0  0.87 0.1 0  0.9 0.1 0  0.93 0.1 0  0.96 0.1 0  0.99 0.1 0  1.02 0.1 0  1.05 0.1 0  1.08 0.1 0  1.11 0.1 0  1.14 0.1 0  1.17 0.1 0  1.2 0.1 0  1.23 0.1 0  1.26 0.1 0  1.29 0.1 0  1.32 0.1 0  1.35 0.1 0  1.38 0.1 0  1.41 0.1 0  1.44 0.1 0  1.47 0.1 0  1.5 0.1 0  0 0.12 0  0.03 0.12 0  0.06 0.12 0  0.09 0.12 0  0.12 0.12 0  0.15 0.12 0  0.18 0.12 0  0.21 0.12 0  0.24 0.12 0  0.27 0.12 0  0.3 0.12 0  0.33 0.12 0  0.36 0.12 0  0.39 0.12 0  0.42 0.12 0  0.45 0.12 0  0.48 0.12 0  0.51 0.12 0  0.54 0.12 0  0.57 0.12 0  0.6 0.12 0  0.63 0.12 0  0.66 0.12 0  0.6899999999999999 0.12 0  0.72 0.12 0  0.75 0.12 0  0.78 0.12 0  0.8100000000000001 0.12 0  0.84 0.12 0  0.87 0.12 0  0.9 0.12 0  0.93 0.12 0  0.96 0.12 0  0.99 0.12 0  1.02 0.12 0  1.05 0.12 0  1.08 0.12 0  1.11 0.12 0  1.14 0.12 0  1.17 0.12 0  1.2 0.12 0  1.23 0.12 0  1.26 0.12 0  1.29 0.12 0  1.32 0.12 0  1.35 0.12 0  1.38 0.12 0  1.41 0.12 0  1.44 0.12 0  1.47 0.12 0  1.5 0.12 0  0 0.14 0  0.03 0.14 0  0.06 0.14 0  0.09 0.14 0  0.12 0.14 0  0.15 0.14 0  0.18 0.14 0  0.21 0.14 0  0.24 0.14 0  0.27 0.14 0  0.3 0.14 0  0.33 0.14 0  0.36 0.14 0  0.39 0.14 0  0.42 0.14 0  0.45 0.14 0  0.48 0.14 0  0.51 0.14 0  0.54 0.14 0  0.57 0.14 0  0.6 0.14 0  0.63 0.14 0  0.66 0.14 0  0.6899999999999999 0.14 0  0.72 0.14 0  0.75 0.14 0  0.78 0.14 0  0.8100000000000001 0.14 0  0.84 0.14 0  0.87 0.14 0  0.9 0.14 0  0.93 0.14 0  0.96 0.14 0  0.99 0.14 0  1.02 0.14 0  1.05 0.14 0  1.08 0.14 0  1.11 0.14 0  1.14 0.14 0  1.17 0.14 0  1.2 0.14 0  1.23 0.14 0  1.26 0.14 0  1.29 0.14 0  1.32 0.14 0  1.35 0.14 0  1.38 0.14 0  1.41 0.14 0  1.44 0.14 0  1.47 0.14 0  1.5 0.14 0  0 0.16 0  0.03 0.16 0  0.06 0.16 0  0.09 0.16 0  0.12 0.16 0  0.15 0.16 0  0.18 0.16 0  0.21 0.16 0  0.24 0.16 0  0.27 0.16 0  0.3 0.16 0  0.33 0.16 0  0.36 0.16 0  0.39 0.16 0  0.42 0.16 0  0.45 0.16 0  0.48 0.16 0  0.51 0.16 0  0.54 0.16 0  0.57 0.16 0  0.6 0.16 0  0.63 0.16 0  0.66 0.16 0  0.6899999999999999 0.16 0  0.72 0.16 0  0.75 0.16 0  0.78 0.16 0  0.8100000000000001 0.16 0  0.84 0.16 0  0.87 0.16 0  0.9 0.16 0  0.93 0.16 0  0.96 0.16 0  0.99 0.16 0  1.02 0.16 0  1.05 0.16 0  1.08 0.16 0  1.11 0.16 0  1.14 0.16 0  1.17 0.16 0  1.2 0.16 0  1.23 0.16 0  1.26 0.16 0  1.29 0.16 0  1.32 0.16 0  1.35 0.16 0  1.38 0.16 0  1.41 0.16 0  1.44 0.16 0  1.47 0.16 0  1.5 0.16 0  0 0.18 0  0.03 0.18 0  0.06 0.18 0  0.09 0.18 0  0.12 0.18 0  0.15 0.18 0  0.18 0.18 0  0.21 0.18 0  0.24 0.18 0  0.27 0.18 0  0.3 0.18 0  0.33 0.18 0  0.36 0.18 0  0.39 0.18 0  0.42 0.18 0  0.45 0.18 0  0.48 0.18 0  0.51 0.18 0  0.54 0.18 0  0.57 0.18 0  0.6 0.18 0  0.63 0.18 0  0.66 0.18 0  0.6899999999999999 0.18 0  0.72 0.18 0  0.75 0.18 0  0.78 0.18 0  0.8100000000000001 0.18 0  0.84 0.18 0  0.87 0.18 0  0.9 0.18 0  0.93 0.18 0  0.96 0.18 0  0.99 0.18 0  1.02 0.18 0  1.05 0.18 0  1.08 0.18 0  1.11 0.18 0  1.14 0.18 0  1.17 0.18 0  1.2 0.18 0  1.23 0.18 0  1.26 0.18 0  1.29 0.18 0  1.32 0.18 0  1.35 0.18 0  1.38 0.18 0  1.41 0.18 0  1.44 0.18 0  1.47 0.18 0  1.5 0.18 0  0 0.2 0  0.03 0.2 0  0.06 0.2 0  0.09 0.2 0  0.12 0.2 0  0.15 0.2 0  0.18 0.2 0  0.21 0.2 0  0.24 0.2 0  0.27 0.2 0  0.3 0.2 0  0.33 0.2 0  0.36 0.2 0  0.39 0.2 0  0.42 0.2 0  0.45 0.2 0  0.48 0.2 0  0.51 0.2 0  0.54 0.2 0  0.57 0.2 0  0.6 0.2 0  0.63 0.2 0  0.66 0.2 0  0.6899999999999999 0.2 0  0.72 0.2 0  0.75 0.2 0  0.78 0.2 0  0.8100000000000001 0.2 0  0.84 0.2 0  0.87 0.2 0  0.9 0.2 0  0.93 0.2 0  0.96 0.2 0  0.99 0.2 0  1.02 0.2 0  1.05 0.2 0  1.08 0.2 0  1.11 0.2 0  1.14 0.2 0  1.17 0.2 0  1.2 0.2 0  1.23 0.2 0  1.26 0.2 0  1.29 0.2 0  1.32 0.2 0  1.35 0.2 0  1.38 0.2 0  1.41 0.2 0  1.44 0.2 0  1.47 0.2 0  1.5 0.2 0  0 0.22 0  0.03 0.22 0  0.06 0.22 0  0.09 0.22 0  0.12 0.22 0  0.15 0.22 0  0.18 0.22 0  0.21 0.22 0  0.24 0.22 0  0.27 0.22 0  0.3 0.22 0  0.33 0.22 0  0.36 0.22 0  0.39 0.22 0  0.42 0.22 0  0.45 0.22 0  0.48 0.22 0  0.51 0.22 0  0.54 0.22 0  0.57 0.22 0  0.6 0.22 0  0.63 0.22 0  0.66 0.22 0  0.6899999999999999 0.22 0  0.72 0.22 0  0.75 0.22 0  0.78 0.22 0  0.8100000000000001 0.22 0  0.84 0.22 0  0.87 0.22 0  0.9 0.22 0  0.93 0.22 0  0.96 0.22 0  0.99 0.22 0  1.02 0.22 0  1.05 0.22 0  1.08 0.22 0  1.11 0.22 0  1.14 0.22 0  1.17 0.22 0  1.2 0.22 0  1.23 0.22 0  1.26 0.22 0  1.29 0.22 0  1.32 0.22 0  1.35 0.22 0  1.38 0.22 0  1.41 0.22 0  1.44 0.22 0  1.47 0.22 0  1.5 0.22 0  0 0.24 0  0.03 0.24 0  0.06 0.24 0  0.09 0.24 0  0.12 0.24 0  0.15 0.24 0  0.18 0.24 0  0.21 0.24 0  0.24 0.24 0  0.27 0.24 0  0.3 0.24 0  0.33 0.24 0  0.36 0.24 0  0.39 0.24 0  0.42 0.24 0  0.45 0.24 0  0.48 0.24 0  0.51 0.24 0  0.54 0.24 0  0.57 0.24 0  0.6 0.24 0  0.63 0.24 0  0.66 0.24 0  0.6899999999999999 0.24 0  0.72 0.24 0  0.75 0.24 0  0.78 0.24 0  0.8100000000000001 0.24 0  0.84 0.24 0  0.87 0.24 0  0.9 0.24 0  0.93 0.24 0  0.96 0.24 0  0.99 0.24 0  1.02 0.24 0  1.05 0.24 0  1.08 0.24 0  1.11 0.24 0  1.14 0.24 0  1.17 0.24 0  1.2 0.24 0  1.23 0.24 0  1.26 0.24 0  1.29 0.24 0  1.32 0.24 0  1.35 0.24 0  1.38 0.24 0  1.41 0.24 0  1.44 0.24 0  1.47 0.24 0  1.5 0.24 0  0 0.26 0  0.03 0.26 0  0.06 0.26 0  0.09 0.26 0  0.12 0.26 0  0.15 0.26 0  0.18 0.26 0  0.21 0.26 0  0.24 0.26 0  0.27 0.26 0  0.3 0.26 0  0.33 0.26 0  0.36 0.26 0  0.39 0.26 0  0.42 0.26 0  0.45 0.26 0  0.48 0.26 0  0.51 0.26 0  0.54 0.26 0  0.57 0.26 0  0.6 0.26 0  0.63 0.26 0  0.66 0.26 0  0.6899999999999999 0.26 0  0.72 0.26 0  0.75 0.26 0  0.78 0.26 0  0.8100000000000001 0.26 0  0.84 0.26 0  0.87 0.26 0  0.9 0.26 0  0.93 0.26 0  0.96 0.26 0  0.99 0.26 0  1.02 0.26 0  1.05 0.26 0  1.08 0.26 0  1.11 0.26 0  1.14 0.26 0  1.17 0.26 0  1.2 0.26 0  1.23 0.26 0  1.26 0.26 0  1.29 0.26 0  1.32 0.26 0  1.35 0.26 0  1.38 0.26 0  1.41 0.26 0  1.44 0.26 0  1.47 0.26 0  1.5 0.26 0  0 0.28 0  0.03 0.28 0  0.06 0.28 0  0.09 0.28 0  0.12 0.28 0  0.15 0.28 0  0.18 0.28 0  0.21 0.28 0  0.24 0.28 0  0.27 0.28 0  0.3 0.28 0  0.33 0.28 0  0.36 0.28 0  0.39 0.28 0  0.42 0.28 0  0.45 0.28 0  0.48 0.28 0  0.51 0.28 0  0.54 0.28 0  0.57 0.28 0  0.6 0.28 0  0.63 0.28 0  0.66 0.28 0  0.6899999999999999 0.28 0  0.72 0.28 0  0.75 0.28 0  0.78 0.28 0  0.8100000000000001 0.28 0  0.84 0.28 0  0.87 0.28 0  0.9 0.28 0  0.93 0.28 0  0.96 0.28 0  0.99 0.28 0  1.02 0.28
[...]
<PointData  Scalars="sensitivity"> 
<DataArray  type="Float64"  Name="sensitivity"  format="ascii">-1.2551524597707609e-06  -1.8005626023844835e-05  -7.5014304868865962e-05  -1.9131314225254650e-04  -3.6797628779317325e-04  -5.8302749542730645e-04  -8.0436607575124560e-04  -1.0046280333072205e-03  -1.1679203272283889e-03  -1.2890788879492336e-03  -1.3697908956873846e-03  -1.4151254790314679e-03  -1.4314576001866273e-03  -1.4253786026193335e-03  -1.4031195288041910e-03  -1.3702361780037068e-03  -1.3314427509881512e-03  -1.2905504540073277e-03  -1.2504925764411578e-03  -1.2134159497028381e-03  -1.1808128186999592e-03  -1.1536670791818849e-03  -1.1325934971082631e-03  -1.1179553641763350e-03  -1.1099533285657168e-03  -1.1086840644829099e-03  -1.1141706277659918e-03  -1.1263665803141962e-03  -1.1451341941154927e-03  -1.1701950900016539e-03  -1.2010516125876215e-03  -1.2368800713103804e-03  -1.2764016629118937e-03  -1.3177410200751350e-03  -1.3582870856997027e-03  -1.3945783738614651e-03  -1.4222428989585695e-03  -1.4360250750381186e-03  -1.4299309158553178e-03  -1.3975346666518943e-03  -1.3324328853441157e-03  -1.2289621975684229e-03  -1.0836564191374486e-03  -8.9816442114234465e-04  -6.8345846266255092e-04  -4.6173491517595373e-04  -2.6354168222568480e-04  -1.1829654299410380e-04  -3.7124497311540688e-05  -5.2837646782298942e-06  -4.5121289656575492e-08  -9.1293239606812742e-06  -7.3958737062342365e-05  -2.9474989982022616e-04  -7.7616830603264480e-04  -1.5407919063064426e-03  -2.5043105197177298e-03  -3.5240080944931489e-03  -4.4677347264968992e-03  -5.2523441995121056e-03  -5.8459029300103153e-03  -6.2511703562644618e-03  -6.4888725822025020e-03  -6.5872544990547600e-03  -6.5764725685093298e-03  -6.4855735879311635e-03  -6.3408195129531332e-03  -6.1647660938449721e-03  -5.9758546835928595e-03  -5.7884288945474162e-03  -5.6130908093878357e-03  -5.4572781035313296e-03  -5.3259366124915860e-03  -5.2221810731466244e-03  -5.1478672847679431e-03  -5.1040340635253407e-03  -5.0912041666837035e-03  -5.1095517974398003e-03  -5.1589480432623824e-03  -5.2388880954564315e-03  -5.3482933548158517e-03  -5.4851782042544053e-03  -5.6461823319249845e-03  -5.8259913155211457e-03  -6.0166899627979260e-03  -6.2071121301847925e-03  -6.3822729711404706e-03  -6.5230244699529772e-03  -6.6060893219698873e-03  -6.6046536732781635e-03  -6.4896136142660651e-03  -6.2315191150814943e-03  -5.8033634257567430e-03  -5.1861498081512154e-03  -4.3794259124083643e-03  -3.4208808186786720e-03  -2.3998322328681416e-03  -1.4474542537216706e-03  -7.0532261491929244e-04  -2.5580138712122700e-04  -6.0607552405899443e-05  -3.4635798799003652e-06  -2.6297264325970900e-05  -1.4358649187950419e-04  -4.2789233490984446e-04  -1.0334351756995526e-03  -1.9674726093922728e-03  -3.1129607415917773e-03  -4.3015151772982721e-03  -5.3847072719367716e-03  -6.2742864927270792e-03  -6.9407951332310378e-03  -7.3909852523673042e-03  -7.6493086450289075e-03  -7.7479760195699786e-03  -7.7214497178639549e-03  -7.6031453255590723e-03  -7.4234792205382111e-03  -7.2087047045900415e-03  -6.9803213526405507e-03  -6.7550168114744614e-03  -6.5450543822787545e-03  -6.3589526759849383e-03  -6.2022960104964843e-03  -6.0785372058086984e-03  -5.9896910790475507e-03  -5.9368642587694295e-03  -5.9206106800923711e-03  -5.9411276630066887e-03  -5.9983116293149466e-03  -6.0916800825472212e-03  -6.2201479724349976e-03  -6.3816387297255658e-03  -6.5725268431643053e-03  -6.7869427717052559e-03  -7.0160050648304297e-03  -7.2470467555765111e-03  -7.4629239371113145e-03  -7.6416205863447835e-03  -7.7563012635778108e-03  -7.7760562526105401e-03  -7.6672496459712280e-03  -7.3964995539871322e-03  -6.9330421886008757e-03  -6.2535963117779083e-03  -5.3492679231446714e-03  -4.2529192021051338e-03  -3.0627525193593053e-03  -1.9190125079161027e-03  -9.8428383344892497e-04  -3.9058562057053771e-04  -1.2664869821049879e-04  -1.5718374718648408e-05  -4.2939105037250372e-05  -2.4274686498231663e-04  -6.3514741168390135e-04  -1.3799644922038521e-03  -2.4202182746702245e-03  -3.6120395074371822e-03  -4.7965127620184997e-03  -5.8373517448069194e-03  -6.6666966867524168e-03  -7.2737270225384561e-03  -7.6719868406961694e-03  -7.8858576592542359e-03  -7.9461898522579649e-03  -7.8862832921472170e-03  -7.7387932582017030e-03  -7.5337887573907730e-03  -7.2974208640315110e-03  -7.0511088323574585e-03  -6.8113520554844223e-03  -6.5900907974924261e-03  -6.3954179948163712e-03  -6.2324538622009606e-03  -6.1042201128433766e-03  -6.0123856653210425e-03  -5.9578187224664037e-03  -5.9409420364613672e-03  -5.9619208488627690e-03  -6.0207153541665523e-03  -6.1170092115484867e-03  -6.2499934837509938e-03  -6.4179676566455514e-03  -6.6177447356110929e-03  -6.8439015735040978e-03  -7.0879711057114502e-03  -7.3376325427624194e-03  -7.5760093851157785e-03  -7.7812527990440998e-03  -7.9265388326219804e-03  -7.9809790405925441e-03  -7.9112417182265419e-03  -7.6867196555131306e-03  -7.2779639628898210e-03  -6.6614426121282735e-03  -5.8181759762260827e-03  -4.7565694974898804e-03  -3.5711880416442027e-03  -2.3833819547436517e-03  -1.3237445041442580e-03  -5.6923675005048047e-04  -2.0392300159137447e-04  -3.2565267980848359e-05  -4.0211018370907651e-05  -3.6467119201241839e-04  -1.0429011931911681e-03  -2.0778341519478547e-03  -3.2368408485549368e-03  -4.4222990779939223e-03  -5.5413235119078580e-03  -6.4661019800872528e-03  -7.1715515813365136e-03  -7.6742007056835645e-03  -7.9878571467084762e-03  -8.1319062871147690e-03  -8.1338571944615697e-03  -8.0246815454614647e-03  -7.8353908682207898e-03  -7.5951636987752176e-03  -7.3297155114087119e-03  -7.0600826195887810e-03  -6.8022440085101958e-03  -6.5674586000294020e-03  -6.3630232644876590e-03  -6.1932432315977021e-03  -6.0604172426121407e-03  -5.9656571822927469e-03  -5.9094603533948829e-03  -5.8920500637508200e-03  -5.9135407128983273e-03  -5.9739808104341072e-03  -6.0732963491621546e-03  -6.2110997160015049e-03  -6.3862885528636814e-03  -6.5963960737825131e-03  -6.8367503714213511e-03  -7.0996085225225030e-03  -7.3733635207148046e-03  -7.6418270963399598e-03  -7.8834489098957728e-03  -8.0718287135824931e-03  -8.1769275259288739e-03  -8.1666035145828344e-03  -8.0115076109336190e-03  -7.6867221789918812e-03  -7.1800641413494537e-03  -6.4822549937644872e-03  -5.5173431983801501e-03  -4.3959363774003935e-03  -3.2558186424230607e-03  -2.0572043505176127e-03  -9.5199683845935759e-04  -2.6885930211059038e-04  -3.7990069390496150e-05  -4.4568128200271577e-05  -6.8528025161660323e-04  -2.6218119843745978e-03  -5.0236591780639037e-03  -6.0984771339284956e-03  -6.5359890030981787e-03  -6.9564872293598088e-03  -7.4146719784696129e-03  -7.8544061482383708e-03  -8.1976417987789305e-03  -8.3967754059969691e-03  -8.4482357340922940e-03  -8.3732269835535503e-03  -8.1992022967319576e-03  -7.9547549977067138e-03  -7.6679970014996131e-03  -7.3642591426855671e-03  -7.0641426009790918e-03  -6.7829202431161639e-03  -6.5308987992850186e-03  -6.3142369521068508e-03  -6.1360658936179197e-03  -5.9976618050119265e-03  -5.8993755007840645e-03  -5.8412169263888040e-03  -5.8231570105522637e-03  -5.8452475363450522e-03  -5.9076437239927180e-03  -6.0105762756558125e-03  -6.1542190589946805e-03  -6.3383046488229714e-03  -6.5613883898030280e-03  -6.8198588145375492e-03  -7.1069522078536541e-03  -7.4120957266732993e-03  -7.7199179536863094e-03  -8.0092996347156109e-03  -8.2557878275515365e-03  -8.4285036894982367e-03  -8.4949662511357212e-03  -8.4235905756003416e-03  -8.2447785975125042e-03  -7.9518051974945669e-03  -7.6793958639378296e-03  -7.3027247171686491e-03  -7.0124098399945625e-03  -6.5551955238772807e-03  -4.5095770510656654e-03  -1.9045157852164473e-03  -3.8147157849899310e-04  -2.5047824914797582e-05  -5.8283186760705458e-04  -3.2249157153289771e-03  -1.0949878226800379e-02  -1.9825461688788380e-02  -2.2854722799184296e-02  -1.9603307823878754e-02  -1.4290945512468645e-02  -1.0304465892500343e-02  -9.0251288609077846e-03  -8.8986053401584955e-03  -8.9090998167384826e-03  -8.8379628627600001e-03  -8.6667934185157853e-03  -8.4123388419755224e-03  -8.0991171798077011e-03  -7.7540822082372693e-03  -7.4025544390793081e-03  -7.0647060341348742e-03  -6.7548934129978691e-03  -6.4821817681859732e-03  -6.2511710066589258e-03  -6.0633545157721888e-03  -5.9186250515242539e-03  -5.8163581951319399e-03  -5.7559744309520090e-03  -5.7371577602290426e-03  -5.7598952531372431e-03  -5.8244563746389097e-03  -5.9314124551816602e-03  -6.0816318519926610e-03  -6.2759650582612583e-03  -6.5143811295773875e-03  -6.7947336598823500e-03  -7.1113744941828563e-03  -7.4550706623390129e-03  -7.8117358125941398e-03  -8.1621604792598713e-03  -8.4815242716651043e-03  -8.7348317568997479e-03  -8.9119693039647219e-03  -8.9813869638566881e-03  -9.1344404409922329e-03  -9.6021029022955121e-03  -1.1521077160628468e-02  -1.4443686537839175e-02  -1.8716334745153381e-02  -2.3139478346988450e-02  -2.0758904307622283e-02  -1.2107987814432248e-02  -2.5388674249021063e-03  -9.7600120436565073e-05  -1.8043442552901172e-03  -1.9124041574000845e-02  -3.2839195412668075e-02  -3.0647353683765227e-02  -3.0313694173413334e-02  -3.1079405162231451e-02  -3.2712472569543266e-02  -2.6132711219882691e-02  -1.5325039374823563e-02  -1.0693374117730551e-02  -9.6474812346407559e-03  -9.3169183107588774e-03  -9.0152587895795545e-03  -8.6633079708491843e-03  -8.2669854192173389e-03  -7.8511578484445690e-03  -7.4420213066580193e-03  -7.0592069601953921e-03  -6.7158374812811708e-03  -6.4194794858001827e-03  -6.1726159331287490e-03  -5.9744443349553046e-03  -5.8230280874232770e-03  -5.7165593630203676e-03  -5.6537996658293623e-03  -5.6341433538278181e-03  -5.6575302975768633e-03  -5.7243358294422429e-03  -5.8354494847321645e-03  -5.9925393270117300e-03  -6.1979209022667674e-03  -6.4534961528091251e-03  -6.7591338850302102e-03  -7.1103382074546011e-03  -7.4997735260303412e-03  -7.9158427590201221e-03  -8.3404162381567129e-03  -8.7423329227630537e-03  -9.1239473259497363e-03  -9.5057953514441646e-03  -9.9733124093873311e-03  -1.1833001041324129e-02  -1.5816000452618571e-02  -2.4524551022473615e-02  -3.2332544856187133e-02  -3.1161487821712280e-02  -3.1098436435111659e-02  -3.0804239415315231e-02  -2.9756426368536312e-02  -1.8994417642097482e-02  -1.7055677905316606e-03  -9.1958977992237616e-03  -3.1423783538699554e-02  -3.1170959469509023e-02  -3.1031869211816537e-02  -3.0758565192715987e-02  -3.0750419070041571e-02  -3.0832790582927660e-02  -3.1021163549104284e-02  -3.2251447172098859e-02  -2.1129890426030844e-02  -1.2561260054232672e-02  -1.0140151831366183e-02  -9.4517962161231941e-03  -8.9562334441130095e-03  -8.4576415837930314e-03  -7.9563541517214762e-03  -7.4793337155656609e-03  -7.0443293381112562e-03  -6.6626290653875424e-03  -6.3403555685593669e-03  -6.0770260159966200e-03  -5.8685073566676236e-03  -5.7105001451809743e-03  -5.5998619980522513e-03  -5.5346874475575032e-03  -5.5141235957353171e-03  -5.5381211127735657e-03  -5.6071421762718442e-03  -5.7222483052035899e-03  -5.8859254958066320e-03  -6.1023653840137672e-03  -6.3761793080563305e-03  -6.7102653556877093e-03  -7.1015940029699135e-03  -7.5428757406676965e-03  -8.0286561356107365e-03  -8.5432823654085169e-03  -9.0732537053234315e-03  -9.7123623622118807e-03  -1.0830199878353937e-02  -1.3589656066120337e-02  -2.0383968256455699e-02  -3.1260549272396028e-02  -3.1413675256538903e-02  -3.1169690079497513e-02  -3.1119260481199736e-02  -3.0984913095201284e-02  -3.0954999117580592e-02  -3.0769079161248918e-02  -3.0972668478740882e-02  -7.0544136639637458e-03  -1.5594620158164461e-02  -3.1297032756889630e-02  -3.1246820153334662e-02  -3.1169657785181756e-02  -3.1087284153604160e-02  -3.1027270609242003e-02  -3.0907838261944959e-02  -3.0608222133450762e-02  -3.0546610226469356e-02  -3.2040799718585700e-02  -2.6423886168031235e-02  -1.4701172342268910e-02  -1.0499149254522718e-02  -9.3644079768254087e-03  -8.6823325171800393e-03  -8.0679244122445048e-03  -7.5112938298088905e-03  -7.0165340768759774e-03  -6.5914471270223157e-03  -6.2419636864336700e-03  -5.9628700527348654e-03  -5.7449018313490124e-03  -5.5808799302010416e-03  -5.4663445318671984e-03  -5.3988027548484115e-03  -5.3772466923054287e-03  -5.4017877165865175e-03  -5.4729742385450971e-03  -5.5916532242542161e-03  -5.7609351413637731e-03  -5.9874456628081548e-03  -6.2797238349375766e-03  -6.6449776682817379e-03  -7.0835295115157793e-03  -7.5789780962085820e-03  -8.1616708681275050e-03  -8.8176293756493124e-03  -9.6576751284008951e-03  -1.1512601459785920e-02  -1.5517668044736744e-02  -2.4688365150484504e-02  -3.1318533825774993e-02  -3.0607433784553516e-02  -3.0957497814910525e-02  -3.0981682148858807e-02  -3.1077174905001014e-02  -3.1145557207382633e-02  -3.1156213197094062e-02  -3.1101015101243756e-02  -3.1119947322614812e-02  -1.5588250336072418e-02  -1.8575299357678925e-02  -3.2307939256418124e-02  -3.1423444166407299e-02  -3.1368342267899349e-02  -3.1337122648457720e-02  -3.1271406182268931e-02  -3.1172243334333657e-02  -3.1002728156533359e-02  -3.0662363852863882e-02  -3.0321907198352455e-02  -3.0713195331250099e-02  -3.0122635271800615e-02  -1.7427628298126080e-02  -1.1019568254314223e-02  -9.1236929348750811e-03  -8.2157852724946308e-03  -7.5448271352264555e-03  -6.9761360478711437e-03  -6.4989953847514291e-03  -6.1222140118654756e-03  -5.8297909712169260e-03  -5.6040794500026459e-03  -5.4349436610684069e-03  -5.3169230351561231e-03  -5.2470935840543687e-03  -5.2244029017537016e-03  -5.2494111597686756e-03  -5.3228883503977928e-03  -5.4447744330918734e-03  -5.6179537573459639e-03  -5.8525394117991637e-03  -6.1626536398292873e-03  -6.5620429145218919e-03  -7.0691647556890133e-03  -7.6357237069582511e-03  -8.4007580039876812e-03  -9.5521464279150689e-03  -1.2223540005289718e-02  -1.7636705910744184e-02  -2.8452673331024012e-02  -3.1085113524635249e-02  -3.0534938862810099e-02  -3.0791725667671639e-02  -3.0982350163657812e-02  -3.1172401564701597e-02  -3.1285728417297452e-02  -3.1315193406101553e-02  -3.1336406581627979e-02  -3.1442136997179730e-02  -3.2626008336032436e-02  -1.7119202794930524e-02  -2.8571319142414318e-02  -4.6379311108077047e-02  -3.5892095814282148e-02  -3.1712577280884301e-02  -3.1507187249372022e-02  -3.1455172004129152e-02  -3.1370530993937523e-02  -3.1250618509665012e-02  -3.1046046298422583e-02  -3.0677838560918023e-02  -3.0290507476895011e-02  -3.0472120530483440e-02  -3.1900290697043150e-02  -2.1973929234463337e-02  -1.2611727541401781e-02  -9.0359513458108300e-03  -7.7705075686153244e-03  -6.9917872355832605e-03  -6.4134436595474431e-03  -6.0008569622859850e-03  -5.6938319324094048e-03  -5.4591895624533197e-03  -5.2841431074596669e-03  -5.1621750749100683e-03  -5.0897665653227356e-03  -5.0656084656481261e-03  -5.0911905354703310e-03  -5.1685612408224561e-03  -5.2959081201141359e-03  -5.4733073783160106e-03  -5.7188865595245867e-03  -6.0559262359107142e-03  -6.5130124782958885e-03  -7.1799524085218967e-03  -8.0356965875539605e-03  -9.9225711306278903e-03  -1.3663860231451622e-02  -2.1079265088935852e-02  -3.0704101722317363e-02  -3.0494678914167756e-02  -3.0743500654688154e-02  -3.0869884046000409e-02  -3.1026353860568723e-02  -3.1242123180703157e-02  -3.1383408032131146e-02  -3.1442221652999716e-02  -3.1477387412320319e-02  -3.1875081054819163e-02  -3.7808877762669509e-02  -4.8078826722590833e-02  -2.5329071206013867e-02  -3.5082427518199524e-02  -6.0537287838955754e-02  -4.6036270610174845e-02  -3.5524803068255770e-02  -3.1790328675199056e-02  -3.1598507952613923e-02  -3.1520152133030381e-02  -3.1426731144319785e-02  -3.1286523892991240e-02  -3.1067088125151753e-02  -3.0763943917363468e-02  -3.0468128792634028e-02  -3.0533517287834596e-02  -3.1741801284392551e-02  -2.8712201411088503e-02  -1.7834999212613729e-02  -1.1418109129890594e-02  -8.4089979047067137e-03  -7.0220610526659831e-03  -6.3106420220319865e-03  -5.8555907134978571e-03  -5.5387596248449595e-03  -5.3192771067764599e-03  -5.1736954277625119e-03  -5.0899634098321173e-03  -5.0624767246381704e-03  -5.0938430973446677e-03  -5.1915333083129055e-03  -5.3554987425348029e-03  -5.5881737338400513e-03  -5.9441661278369189e-03  -6.5018265473331246e-03  -7.4276586004631195e-03  -9.2897047972812022e-03  -1.2233927951906691e-02  -1.7227777822536136e-02  -2.7114614240693620e-02  -3.1861687930066433e-02  -3.0831634770761632e-02  -3.0779045654212574e-02  -3.0888179558578789e-02  -3.1120101066620203e-02  -3.1301681189610436e-02  -3.1436331162507103e-02  -3.1528645357367303e-02  -3.1558864995646793e-02  -3.1917613324452830e-02  -3.6497382719502987e-02  -4.6511523953663383e-02  -6.0495913765328160e-02  -3.3672248940216025e-02  -3.4013133770703093e-02  -6.2863395883770462e-02  -5.0383074395736575e-02  -3.9878677790991530e-02  -3.3336295185510879e-02  -3.1762810243547282e-02  -3.1644317462389944e-02  -3.1555736862658577e-02  -3.1450679485832495e-02  -3.1306780839719293e-02  -3.1107894278530900e-02  -3.0870461548988839e-02  -3.0625644086823795e-02  -3.0441702569034227e-02  -3.0488517783806009e-02  -3.1360840836556193e-02  -2.8992497760442618e-02  -2.1725081136831484e-02  -1.6233617853016667e-02  -1.3064477950919395e-02  -1.1094488152865362e-02  -9.8812537235151710e-03  -9.1263360462468923e-03  -8.6775964318713591e-03  -8.4472100111554083e-03  -8.3832329233156522e-03  -8.4809563070665315e-03  -8.7682973333355445e-03  -9.2636732039987311e-03  -9.9987410628376971e-03  -1.1189127220343506e-02  -1.3074831805073702e-02  -1.5948909367716237e-02  -2.0888718496280573e-02  -2.8291572040820851e-02  -3.1249517781119798e-02  -3.0022940040084524e-02  -3.0553641628931216e-02  -3.0882348020395665e-02  -3.0969090177466362e-02  -3.1161778590870333e-02  -3.1341745141503723e-02  -3.1473594367773000e-02  -3.1573064769241689e-02  -3.1634145842372827e-02  -3.1784191030605667e-02  -3.3701877414167254e-02  -3.9828427651334562e-02  -4.9739822032596942e-02  -6.2095342508386012e-02  -3.5179029802913389e-02  -2.5873586592940912e-02  -5.2438527454641816e-02  -4.5818105245162714e-02  -3.9479941564743028e-02  -3.4567885997403479e-02  -3.2146123559129373e-02  -3.1765458460645823e-02  -3.1661812705127863e-02  -3.1567521660546431e-02  -3.1461456725289293e-02  -3.1326090071200789e-02  -3.1149336560873070e-02  -3.0943726857735662e-02  -3.0731247369438015e-02  -3.0426922144861247e-02  -3.0136040771270557e-02  -3.0213820573129092e-02  -3.0809301072524078e-02  -3.1852271598057522e-02  -3.2473813386541643e-02  -3.1817273746334272e-02  -3.1051730120464218e-02  -3.0322909865974499e-02  -2.9645440209517246e-02  -2.9194354010589077e-02  -2.8997828092452285e-02  -2.9084441401173635e-02  -2.9506314796935450e-02  -3.0215515462051239e-02  -3.0905869528582250e-02  -3.1498646522926471e-02  -3.2288855770764985e-02  -3.2395619059740748e-02  -3.1189523844880954e-02  -3.0009380517246893e-02  -3.0312561851868421e-02  -3.0538119229062688e-02  -3.0663680788384658e-02  -3.0969758630311015e-02  -3.1198170481381637e-02  -3.1361730045649495e-02  -3.1491770972964163e-02  -3.1593568520555344e-02  -3.1673344622658264e-02  -3.1771526523324704e-02  -3.2238127303787327e-02  -3.4425612921509724e-02  -3.8746652813931290e-02  -4.4659019847328167e-02  -5.1175829433932160e-02  -2.9071023157039685e-02  -1.7089070497049445e-02  -3.6308339013144564e-02  -3.5932035880570611e-02  -3.4835173403365491e-02  -3.3444535077367041e-02  -3.2341154415613867e-02  -3.1904550487648634e-02  -3.1757626384089591e-02  -3.1660370691596995e-02  -3.1568134228524322e-02  -3.1466494109389155e-02  -3.1343466021224980e-02  -3.1187263600217469e-02  -3.1007732813693845e-02  -3.0818105305906163e-02  -3.0582040382771326e-02  -3.0335059891143833e-02  -3.0282093812633047e-02  -3.0384233010001167e-02  -3.0372835230298247e-02  -3.0213922483011187e-02  -3.0104352144952339e-02  -3.0220841587148030e-02  -3.0408861238622683e-02  -3.0506590518501339e-02  -3.0482437413065260e-02  -3.0400348685441326e-02  -3.0293076489050073e-02  -3.0178969901742500e-02  -3.0089934359647314e-02  -3.0064436310051679e-02  -