<?xml version="1.0"?>
<VTKFile type="UnstructuredGrid"  version="0.1"  >
<UnstructuredGrid>
<Piece  NumberOfPoints="2601" NumberOfCells="5000">
<Points>
<DataArray  type="Float64"  NumberOfComponents="3"  format="ascii">0 0 0  0.03 0 0  0.06 0 0  0.09 0 0  0.12 0 0  0.15 0 0  0.18 0 0  0.21 0 0  0.24 0 0  0.27 0 0  0.3 0 0  0.33 0 0  0.36 0 0  0.39 0 0  0.42 0 0  0.45 0 0  0.48 0 0  0.51 0 0  0.54 0 0  0.57 0 0  0.6 0 0  0.63 0 0  0.66 0 0  0.6899999999999999 0 0  0.72 0 0  0.75 0 0  0.78 0 0  0.8100000000000001 0 0  0.84 0 0  0.87 0 0  0.9 0 0  0.93 0 0  0.96 0 0  0.99 0 0  1.02 0 0  1.05 0 0  1.08 0 0  1.11 0 0  1.14 0 0  1.17 0 0  1.2 0 0  1.23 0 0  1.26 0 0  1.29 0 0  1.32 0 0  1.35 0 0  1.38 0 0  1.41 0 0  1.44 0 0  1.47 0 0  1.5 0 0  0 0.02 0  0.03 0.02 0  0.06 0.02 0  0.09 0.02 0  0.12 0.02 0  0.15 0.02 0  0.18 0.02 0  0.21 0.02 0  0.24 0.02 0  0.27 0.02 0  0.3 0.02 0  0.33 0.02 0  0.36 0.02 0  0.39 0.02 0  0.42 0.02 0  0.45 0.02 0  0.48 0.02 0  0.51 0.02 0  0.54 0.02 0  0.57 0.02 0  0.6 0.02 0  0.63 0.02 0  0.66 0.02 0  0.6899999999999999 0.02 0  0.72 0.02 0  0.75 0.02 0  0.78 0.02 0  0.8100000000000001 0.02 0  0.84 0.02 0  0.87 0.02 0  0.9 0.02 0  0.93 0.02 0  0.96 0.02 0  0.99 0.02 0  1.02 0.02 0  1.05 0.02 0  1.08 0.02 0  1.11 0.02 0  1.14 0.02 0  1.17 0.02 0  1.2 0.02 0  1.23 0.02 0  1.26 0.02 0  1.29 0.02 0  1.32 0.02 0  1.35 0.02 0  1.38 0.02 0  1.41 0.02 0  1.44 0.02 0  1.47 0.02 0  1.5 0.02 0  0 0.04 0  0.03 0.04 0  0.06 0.04 0  0.09 0.04 0  0.12 0.04 0  0.15 0.04 0  0.18 0.04 0  0.21 0.04 0  0.24 0.04 0  0.27 0.04 0  0.3 0.04 0  0.33 0.04 0  0.36 0.04 0  0.39 0.04 0  0.42 0.04 0  0.45 0.04 0  0.48 0.04 0  0.51 0.04 0  0.54 0.04 0  0.57 0.04 0  0.6 0.04 0  0.63 0.04 0  0.66 0.04 0  0.6899999999999999 0.04 0  0.72 0.04 0  0.75 0.04 0  0.78 0.04 0  0.8100000000000001 0.04 0  0.84 0.04 0  0.87 0.04 0  0.9 0.04 0  0.93 0.04 0  0.96 0.04 0  0.99 0.04 0  1.02 0.04 0  1.05 0.04 0  1.08 0.04 0  1.11 0.04 0  1.14 0.04 0  1.17 0.04 0  1.2 0.04 0  1.23 0.04 0  1.26 0.04 0  1.29 0.04 0  1.32 0.04 0  1.35 0.04 0  1.38 0.04 0  1.41 0.04 0  1.44 0.04 0  1.47 0.04 0  1.5 0.04 0  0 0.06 0  0.03 0.06 0  0.06 0.06 0  0.09 0.06 0  0.12 0.06 0  0.15 0.06 0  0.18 0.06 0  0.21 0.06 0  0.24 0.06 0  0.27 0.06 0  0.3 0.06 0  0.33 0.06 0  0.36 0.06 0  0.39 0.06 0  0.42 0.06 0  0.45 0.06 0  0.48 0.06 0  0.51 0.06 0  0.54 0.06 0  0.57 0.06 0  0.6 0.06 0  0.63 0.06 0  0.66 0.06 0  0.6899999999999999 0.06 0  0.72 0.06 0  0.75 0.06 0  0.78 0.06 0  0.8100000000000001 0.06 0  0.84 0.06 0  0.87 0.06 0  0.9 0.06 0  0.93 0.06 0  0.96 0.06 0  0.99 0.06 0  1.02 0.06 0  1.05 0.06 0  1.08 0.06 0  1.11 0.06 0  1.14 0.06 0  1.17 0.06 0  1.2 0.06 0  1.23 0.06 0  1.26 0.06 0  1.29 0.06 0  1.32 0.06 0  1.35 0.06 0  1.38 0.06 0  1.41 0.06 0  1.44 0.06 0  1.47 0.06 0  1.5 0.06 0  0 0.08 0  0.03 0.08 0  0.06 0.08 0  0.09 0.08 0  0.12 0.08 0  0.15 0.08 0  0.18 0.08 0  0.21 0.08 0  0.24 0.08 0  0.27 0.08 0  0.3 0.08 0  0.33 0.08 0  0.36 0.08 0  0.39 0.08 0  0.42 0.08 0  0.45 0.08 0  0.48 0.08 0  0.51 0.08 0  0.54 0.08 0  0.57 0.08 0  0.6 0.08 0  0.63 0.08 0  0.66 0.08 0  0.6899999999999999 0.08 0  0.72 0.08 0  0.75 0.08 0  0.78 0.08 0  0.8100000000000001 0.08 0  0.84 0.08 0  0.87 0.08 0  0.9 0.08 0  0.93 0.08 0  0.96 0.08 0  0.99 0.08 0  1.02 0.08 0  1.05 0.08 0  1.08 0.08 0  1.11 0.08 0  1.14 0.08 0  1.17 0.08 0  1.2 0.08 0  1.23 0.08 0  1.26 0.08 0  1.29 0.08 0  1.32 0.08 0  1.35 0.08 0  1.38 0.08 0  1.41 0.08 0  1.44 0.08 0  1.47 0.08 0  1.5 0.08 0  0 0.1 0  0.03 0.1 0  0.06 0.1 0  0.09 0.1 0  0.12 0.1 0  0.15 0.1 0  0.18 0.1 0  0.21 0.1 0  0.24 0.1 0  0.27 0.1 0  0.3 0.1 0  0.33 0.1 0  0.36 0.1 0  0.39 0.1 0  0.42 0.1 0  0.45 0.1 0  0.48 0.1 0  0.51 0.1 0  0.54 0.1 0  0.57 0.1 0  0.6 0.1 0  0.63 0.1 0  0.66 0.1 0  0.6899999999999999 0.1 0  0.72 0.1 0  0.75 0.1 0  0.78 0.1 0  0.8100000000000001 0.1 0  0.84 0.1 0  0.87 0.1 0  0.9 0.1 0  0.93 0.1 0  0.96 0.1 0  0.99 0.1 0  1.02 0.1 0  1.05 0.1 0  1.08 0.1 0  1.11 0.1 0  1.14 0.1 0  1.17 0.1 0  1.2 0.1 0  1.23 0.1 0  1.26 0.1 0  1.29 0.1 0  1.32 0.1 0  1.35 0.1 0  1.38 0.1 0  1.41 0.1 0  1.44 0.1 0  1.47 0.1 0  1.5 0.1 0  0 0.12 0  0.03 0.12 0  0.06 0.12 0  0.09 0.12 0  0.12 0.12 0  0.15 0.12 0  0.18 0.12 0  0.21 0.12 0  0.24 0.12 0  0.27 0.12 0  0.3 0.12 0  0.33 0.12 0  0.36 0.12 0  0.39 0.12 0  0.42 0.12 0  0.45 0.12 0  0.48 0.12 0  0.51 0.12 0  0.54 0.12 0  0.57 0.12 0  0.6 0.12 0  0.63 0.12 0  0.66 0.12 0  0.6899999999999999 0.12 0  0.72 0.12 0  0.75 0.12 0  0.78 0.12 0  0.8100000000000001 0.12 0  0.84 0.12 0  0.87 0.12 0  0.9 0.12 0  0.93 0.12 0  0.96 0.12 0  0.99 0.12 0  1.02 0.12 0  1.05 0.12 0  1.08 0.12 0  1.11 0.12 0  1.14 0.12 0  1.17 0.12 0  1.2 0.12 0  1.23 0.12 0  1.26 0.12 0  1.29 0.12 0  1.32 0.12 0  1.35 0.12 0  1.38 0.12 0  1.41 0.12 0  1.44 0.12 0  1.47 0.12 0  1.5 0.12 0  0 0.14 0  0.03 0.14 0  0.06 0.14 0  0.09 0.14 0  0.12 0.14 0  0.15 0.14 0  0.18 0.14 0  0.21 0.14 0  0.24 0.14 0  0.27 0.14 0  0.3 0.14 0  0.33 0.14 0  0.36 0.14 0  0.39 0.14 0  0.42 0.14 0  0.45 0.14 0  0.48 0.14 0  0.51 0.14 0  0.54 0.14 0  0.57 0.14 0  0.6 0.14 0  0.63 0.14 0  0.66 0.14 0  0.6899999999999999 0.14 0  0.72 0.14 0  0.75 0.14 0  0.78 0.14 0  0.8100000000000001 0.14 0  0.84 0.14 0  0.87 0.14 0  0.9 0.14 0  0.93 0.14 0  0.96 0.14 0  0.99 0.14 0  1.02 0.14 0  1.05 0.14 0  1.08 0.14 0  1.11 0.14 0  1.14 0.14 0  1.17 0.14 0  1.2 0.14 0  1.23 0.14 0  1.26 0.14 0  1.29 0.14 0  1.32 0.14 0  1.35 0.14 0  1.38 0.14 0  1.41 0.14 0  1.44 0.14 0  1.47 0.14 0  1.5 0.14 0  0 0.16 0  0.03 0.16 0  0.06 0.16 0  0.09 0.16 0  0.12 0.16 0  0.15 0.16 0  0.18 0.16 0  0.21 0.16 0  0.24 0.16 0  0.27 0.16 0  0.3 0.16 0  0.33 0.16 0  0.36 0.16 0  0.39 0.16 0  0.42 0.16 0  0.45 0.16 0  0.48 0.16 0  0.51 0.16 0  0.54 0.16 0  0.57 0.16 0  0.6 0.16 0  0.63 0.16 0  0.66 0.16 0  0.6899999999999999 0.16 0  0.72 0.16 0  0.75 0.16 0  0.78 0.16 0  0.8100000000000001 0.16 0  0.84 0.16 0  0.87 0.16 0  0.9 0.16 0  0.93 0.16 0  0.96 0.16 0  0.99 0.16 0  1.02 0.16 0  1.05 0.16 0  1.08 0.16 0  1.11 0.16 0  1.14 0.16 0  1.17 0.16 0  1.2 0.16 0  1.23 0.16 0  1.26 0.16 0  1.29 0.16 0  1.32 0.16 0  1.35 0.16 0  1.38 0.16 0  1.41 0.16 0  1.44 0.16 0  1.47 0.16 0  1.5 0.16 0  0 0.18 0  0.03 0.18 0  0.06 0.18 0  0.09 0.18 0  0.12 0.18 0  0.15 0.18 0  0.18 0.18 0  0.21 0.18 0  0.24 0.18 0  0.27 0.18 0  0.3 0.18 0  0.33 0.18 0  0.36 0.18 0  0.39 0.18 0  0.42 0.18 0  0.45 0.18 0  0.48 0.18 0  0.51 0.18 0  0.54 0.18 0  0.57 0.18 0  0.6 0.18 0  0.63 0.18 0  0.66 0.18 0  0.6899999999999999 0.18 0  0.72 0.18 0  0.75 0.18 0  0.78 0.18 0  0.8100000000000001 0.18 0  0.84 0.18 0  0.87 0.18 0  0.9 0.18 0  0.93 0.18 0  0.96 0.18 0  0.99 0.18 0  1.02 0.18 0  1.05 0.18 0  1.08 0.18 0  1.11 0.18 0  1.14 0.18 0  1.17 0.18 0  1.2 0.18 0  1.23 0.18 0  1.26 0.18 0  1.29 0.18 0  1.32 0.18 0  1.35 0.18 0  1.38 0.18 0  1.41 0.18 0  1.44 0.18 0  1.47 0.18 0  1.5 0.18 0  0 0.2 0  0.03 0.2 0  0.06 0.2 0  0.09 0.2 0  0.12 0.2 0  0.15 0.2 0  0.18 0.2 0  0.21 0.2 0  0.24 0.2 0  0.27 0.2 0  0.3 0.2 0  0.33 0.2 0  0.36 0.2 0  0.39 0.2 0  0.42 0.2 0  0.45 0.2 0  0.48 0.2 0  0.51 0.2 0  0.54 0.2 0  0.57 0.2 0  0.6 0.2 0  0.63 0.2 0  0.66 0.2 0  0.6899999999999999 0.2 0  0.72 0.2 0  0.75 0.2 0  0.78 0.2 0  0.8100000000000001 0.2 0  0.84 0.2 0  0.87 0.2 0  0.9 0.2 0  0.93 0.2 0  0.96 0.2 0  0.99 0.2 0  1.02 0.2 0  1.05 0.2 0  1.08 0.2 0  1.11 0.2 0  1.14 0.2 0  1.17 0.2 0  1.2 0.2 0  1.23 0.2 0  1.26 0.2 0  1.29 0.2 0  1.32 0.2 0  1.35 0.2 0  1.38 0.2 0  1.41 0.2 0  1.44 0.2 0  1.47 0.2 0  1.5 0.2 0  0 0.22 0  0.03 0.22 0  0.06 0.22 0  0.09 0.22 0  0.12 0.22 0  0.15 0.22 0  0.18 0.22 0  0.21 0.22 0  0.24 0.22 0  0.27 0.22 0  0.3 0.22 0  0.33 0.22 0  0.36 0.22 0  0.39 0.22 0  0.42 0.22 0  0.45 0.22 0  0.48 0.22 0  0.51 0.22 0  0.54 0.22 0  0.57 0.22 0  0.6 0.22 0  0.63 0.22 0  0.66 0.22 0  0.6899999999999999 0.22 0  0.72 0.22 0  0.75 0.22 0  0.78 0.22 0  0.8100000000000001 0.22 0  0.84 0.22 0  0.87 0.22 0  0.9 0.22 0  0.93 0.22 0  0.96 0.22 0  0.99 0.22 0  1.02 0.22 0  1.05 0.22 0  1.08 0.22 0  1.11 0.22 0  1.14 0.22 0  1.17 0.22 0  1.2 0.22 0  1.23 0.22 0  1.26 0.22 0  1.29 0.22 0  1.32 0.22 0  1.35 0.22 0  1.38 0.22 0  1.41 0.22 0  1.44 0.22 0  1.47 0.22 0  1.5 0.22 0  0 0.24 0  0.03 0.24 0  0.06 0.24 0  0.09 0.24 0  0.12 0.24 0  0.15 0.24 0  0.18 0.24 0  0.21 0.24 0  0.24 0.24 0  0.27 0.24 0  0.3 0.24 0  0.33 0.24 0  0.36 0.24 0  0.39 0.24 0  0.42 0.24 0  0.45 0.24 0  0.48 0.24 0  0.51 0.24 0  0.54 0.24 0  0.57 0.24 0  0.6 0.24 0  0.63 0.24 0  0.66 0.24 0  0.6899999999999999 0.24 0  0.72 0.24 0  0.75 0.24 0  0.78 0.24 0  0.8100000000000001 0.24 0  0.84 0.24 0  0.87 0.24 0  0.9 0.24 0  0.93 0.24 0  0.96 0.24 0  0.99 0.24 0  1.02 0.24 0  1.05 0.24 0  1.08 0.24 0  1.11 0.24 0  1.14 0.24 0  1.17 0.24 0  1.2 0.24 0  1.23 0.24 0  1.26 0.24 0  1.29 0.24 0  1.32 0.24 0  1.35 0.24 0  1.38 0.24 0  1.41 0.24 0  1.44 0.24 0  1.47 0.24 0  1.5 0.24 0  0 0.26 0  0.03 0.26 0  0.06 0.26 0  0.09 0.26 0  0.12 0.26 0  0.15 0.26 0  0.18 0.26 0  0.21 0.26 0  0.24 0.26 0  0.27 0.26 0  0.3 0.26 0  0.33 0.26 0  0.36 0.26 0  0.39 0.26 0  0.42 0.26 0  0.45 0.26 0  0.48 0.26 0  0.51 0.26 0  0.54 0.26 0  0.57 0.26 0  0.6 0.26 0  0.63 0.26 0  0.66 0.26 0  0.6899999999999999 0.26 0  0.72 0.26 0  0.75 0.26 0  0.78 0.26 0  0.8100000000000001 0.26 0  0.84 0.26 0  0.87 0.26 0  0.9 0.26 0  0.93 0.26 0  0.96 0.26 0  0.99 0.26 0  1.02 0.26 0  1.05 0.26 0  1.08 0.26 0  1.11 0.26 0  1.14 0.26 0  1.17 0.26 0  1.2 0.26 0  1.23 0.26 0  1.26 0.26 0  1.29 0.26 0  1.32 0.26 0  1.35 0.26 0  1.38 0.26 0  1.41 0.26 0  1.44 0.26 0  1.47 0.26 0  1.5 0.26 0  0 0.28 0  0.03 0.28 0  0.06 0.28 0  0.09 0.28 0  0.12 0.28 0  0.15 0.28 0  0.18 0.28 0  0.21 0.28 0  0.24 0.28 0  0.27 0.28 0  0.3 0.28 0  0.33 0.28 0  0.36 0.28 0  0.39 0.28 0  0.42 0.28 0  0.45 0.28 0  0.48 0.28 0  0.51 0.28 0  0.54 0.28 0  0.57 0.28 0  0.6 0.28 0  0.63 0.28 0  0.66 0.28 0  0.6899999999999999 0.28 0  0.72 0.28 0  0.75 0.28 0  0.78 0.28 0  0.8100000000000001 0.28 0  0.84 0.28 0  0.87 0.28 0  0.9 0.28 0  0.93 0.28 0  0.96 0.28 0  0.99 0.28 0  1.02 0.28
[...]
<PointData  Scalars="sensitivity"> 
<DataArray  type="Float64"  Name="sensitivity"  format="ascii">-1.2912535699333143e-06  -1.8372205094007515e-05  -7.6492565010433838e-05  -1.9461089139112349e-04  -3.7305268447511474e-04  -5.8926127109439237e-04  -8.1129063055358438e-04  -1.0120984558101391e-03  -1.1758181239182172e-03  -1.2971671604797893e-03  -1.3777200338610717e-03  -1.4224789901251026e-03  -1.4378695988958097e-03  -1.4306648559848354e-03  -1.4073117537439278e-03  -1.3735151320338006e-03  -1.3340482300676203e-03  -1.2927236235029183e-03  -1.2524509880506257e-03  -1.2153399310372744e-03  -1.1828320730568863e-03  -1.1558504049945675e-03  -1.1349476185176311e-03  -1.1204336980352738e-03  -1.1124704594447231e-03  -1.1111312219908352e-03  -1.1164305461079725e-03  -1.1283293282876754e-03  -1.1467161801285302e-03  -1.1713607956802376e-03  -1.2018331686888216e-03  -1.2373870106082514e-03  -1.2768157606626851e-03  -1.3182984450753861e-03  -1.3592546270910616e-03  -1.3962240433823944e-03  -1.4247912009396910e-03  -1.4395923804541124e-03  -1.4344600068411577e-03  -1.4027549457533007e-03  -1.3378556018260324e-03  -1.2339779478180255e-03  -1.0878119962318784e-03  -9.0144209635659948e-04  -6.8617163093505264e-04  -4.6417622132339750e-04  -2.6574538774996735e-04  -1.1993652658139803e-04  -3.7898783836981523e-05  -5.4284123904045123e-06  -5.1223964040634014e-08  -9.3203285921648969e-06  -7.5409817822753606e-05  -3.0030119466037300e-04  -7.8895550904042649e-04  -1.5606267531125986e-03  -2.5279439082397928e-03  -3.5488097662454681e-03  -4.4929546870802238e-03  -5.2777141319790000e-03  -5.8708110443229291e-03  -6.2745744398719902e-03  -6.5093231794438036e-03  -6.6033193287610651e-03  -6.5874048815626942e-03  -6.4915904323503684e-03  -6.3428393493743873e-03  -6.1639728807200847e-03  -5.9734080551458344e-03  -5.7853507703631186e-03  -5.6102175408240086e-03  -5.4552074121924218e-03  -5.3249777342345220e-03  -5.2223424648217380e-03  -5.1488930939842456e-03  -5.1054715345267938e-03  -5.0924771550448673e-03  -5.1100292593719305e-03  -5.1580139971317109e-03  -5.2360261082952352e-03  -5.3431886635081508e-03  -5.4778189677894863e-03  -5.6369234607486270e-03  -5.8155498977530791e-03  -6.0060766759017911e-03  -6.1975353549038907e-03  -6.3750322146013290e-03  -6.5193467249598167e-03  -6.6068517166380600e-03  -6.6100795169952735e-03  -6.4990671102259394e-03  -6.2433965219050088e-03  -5.8152973756306781e-03  -5.1960174253614221e-03  -4.3869547791817436e-03  -3.4275496665213310e-03  -2.4070322966496041e-03  -1.4554576712669204e-03  -7.1266574736512445e-04  -2.6031220013094503e-04  -6.2120327039066490e-05  -3.5724749288834327e-06  -2.6863908917341965e-05  -1.4661001101979768e-04  -4.3664632859215994e-04  -1.0515986552969312e-03  -1.9934072096093351e-03  -3.1416559797977652e-03  -4.3310101755033850e-03  -5.4154818897264182e-03  -6.3060724976362224e-03  -6.9726262992992555e-03  -7.4215797752080646e-03  -7.6766854601288004e-03  -7.7699992462531365e-03  -7.7370113317231058e-03  -7.6125803567822694e-03  -7.4280464050871797e-03  -7.2099036506919475e-03  -6.9795459612928736e-03  -6.7534876388978217e-03  -6.5437978297088247e-03  -6.3587250858134631e-03  -6.2034963518712710e-03  -6.0811799200673738e-03  -5.9934568402008337e-03  -5.9411939278463206e-03  -5.9247993643429192e-03  -5.9444023516300676e-03  -5.9999065443345472e-03  -6.0909352610792793e-03  -6.2166416656715111e-03  -6.3753290996318443e-03  -6.5638442009457107e-03  -6.7767761508927757e-03  -7.0055917354723118e-03  -7.2378413726159017e-03  -7.4565013049178626e-03  -7.6395186519960480e-03  -7.7596639896278441e-03  -7.7852380681924897e-03  -7.6815634151318072e-03  -7.4140812903084217e-03  -6.9506622730598272e-03  -6.2676160357436530e-03  -5.3588729639704380e-03  -4.2604881301629913e-03  -3.0702574193144862e-03  -1.9273790164631482e-03  -9.9318957509179754e-04  -3.9754899633523730e-04  -1.3041360420583514e-04  -1.6258665330648593e-05  -4.3903927496121392e-05  -2.4837375175169375e-04  -6.4975410834893920e-04  -1.4062230261948801e-03  -2.4512764514005719e-03  -3.6396801806551542e-03  -4.8237109414904578e-03  -5.8679689510693312e-03  -6.6994385406604386e-03  -7.3069836028564527e-03  -7.7047761972131841e-03  -7.9156837051069552e-03  -7.9699002761194140e-03  -7.9024120047000296e-03  -7.7480718744222530e-03  -7.5379991964801742e-03  -7.2983237096092149e-03  -7.0501482654457938e-03  -6.8097758970595028e-03  -6.5890106992237798e-03  -6.3956909128215457e-03  -6.2345246845315972e-03  -6.1080705632304251e-03  -6.0176111437726066e-03  -5.9637610824045204e-03  -5.9468023661759916e-03  -5.9668300049135811e-03  -6.0237932717255721e-03  -6.1174620491804667e-03  -6.2472750374762548e-03  -6.4119751761447553e-03  -6.6089534881063746e-03  -6.8333332886732646e-03  -7.0770057101297136e-03  -7.3278194057642002e-03  -7.5690374751618003e-03  -7.7789046069588171e-03  -7.9302990448785870e-03  -7.9913654238269686e-03  -7.9276202833073912e-03  -7.7076340141539945e-03  -7.2995737851171381e-03  -6.6777358785116217e-03  -5.8263839461172263e-03  -4.7611620466230589e-03  -3.5751984551373292e-03  -2.3872078205577768e-03  -1.3309177900421867e-03  -5.7841736346631251e-04  -2.1148261967181143e-04  -3.4055683275979834e-05  -4.0809924127500003e-05  -3.7374943166631851e-04  -1.0704071937499549e-03  -2.1183391093776973e-03  -3.2703985788325039e-03  -4.4365365448740535e-03  -5.5591630255858995e-03  -6.4956188496069749e-03  -7.2043833582874309e-03  -7.7075527294011735e-03  -8.0224975242500583e-03  -8.1642758112245393e-03  -8.1585518046024385e-03  -8.0397414307876603e-03  -7.8425633579941936e-03  -7.5972274981018556e-03  -7.3287625188133455e-03  -7.0575008635571550e-03  -6.7992566817429148e-03  -6.5653121836480232e-03  -6.3627510538946568e-03  -6.1953626724355754e-03  -6.0648414858251601e-03  -5.9718320152377094e-03  -5.9165729348542645e-03  -5.8991717522469261e-03  -5.9196761239473216e-03  -5.9780886072613353e-03  -6.0743738993450759e-03  -6.2083888757133434e-03  -6.3795702195568156e-03  -6.5862147318338964e-03  -6.8243597722254315e-03  -7.0866095683127456e-03  -7.3613831147945402e-03  -7.6326322748874915e-03  -7.8792090713849152e-03  -8.0746491129321078e-03  -8.1872887790788839e-03  -8.1841989002344930e-03  -8.0360712647072514e-03  -7.7140467186739099e-03  -7.1996813309545115e-03  -6.4823591134536103e-03  -5.5104946522009845e-03  -4.3886849784381572e-03  -3.2416639332942267e-03  -2.0508990733585897e-03  -9.5930382162851598e-04  -2.7982037465389934e-04  -4.0670625828787307e-05  -4.4995439725965586e-05  -7.0726473724825115e-04  -2.6676802159250204e-03  -5.0105529227942487e-03  -6.0225589558461617e-03  -6.4232208867480737e-03  -6.9128738639193752e-03  -7.4323530848793432e-03  -7.8837081635633778e-03  -8.2285268050025402e-03  -8.4347739039092474e-03  -8.4858068543130598e-03  -8.3996830623458245e-03  -8.2121919764532314e-03  -7.9584907216709230e-03  -7.6670192726915453e-03  -7.3609064305141672e-03  -7.0594441632633575e-03  -6.7779749757728193e-03  -6.5272075619787614e-03  -6.3131659013502704e-03  -6.1382575976226357e-03  -6.0029010871381775e-03  -5.9068604517076972e-03  -5.8499112348894483e-03  -5.8319772018201261e-03  -5.8530596991416229e-03  -5.9132032751966195e-03  -6.0125763299499462e-03  -6.1515579310819461e-03  -6.3305533291824244e-03  -6.5492047432768631e-03  -6.8049176089158914e-03  -7.0912228380825282e-03  -7.3972618823264381e-03  -7.7075969809692986e-03  -8.0021570762706124e-03  -8.2571035753873506e-03  -8.4389669755238188e-03  -8.5143622449444373e-03  -8.4500898476036201e-03  -8.2785840964301853e-03  -7.9700842282704621e-03  -7.6376424844959287e-03  -7.2110309994025418e-03  -6.8726797768561112e-03  -6.3571196104759116e-03  -4.3781730198710969e-03  -1.8924925657495702e-03  -3.8680482390170210e-04  -2.7290722502480385e-05  -5.8329779959197714e-04  -3.0246136892217697e-03  -1.0722960840514127e-02  -1.9637831550867912e-02  -2.2342244312522717e-02  -1.8577751621418025e-02  -1.3513732717495362e-02  -1.0096762214567564e-02  -8.9755567434253551e-03  -8.9081451432617732e-03  -8.9521094416692027e-03  -8.8862430733818252e-03  -8.6959557145541641e-03  -8.4209955373375674e-03  -8.0972753088098866e-03  -7.7491059615223202e-03  -7.3964660003261740e-03  -7.0574741799422505e-03  -6.7473317316614542e-03  -6.4763132774168083e-03  -6.2489909472543438e-03  -6.0657056389890399e-03  -5.9250393376262742e-03  -5.8256188679739074e-03  -5.7667320859679022e-03  -5.7481744466150184e-03  -5.7699242606311695e-03  -5.8320242848811620e-03  -5.9347849891757745e-03  -6.0791527123057786e-03  -6.2668150480255499e-03  -6.4993814972855368e-03  -6.7763331032385729e-03  -7.0922549368552862e-03  -7.4368443119305775e-03  -7.7950126445532038e-03  -8.1505044918703719e-03  -8.4809392793560538e-03  -8.7467432846102446e-03  -8.9276374201282573e-03  -8.9963809134247265e-03  -9.1584044271843402e-03  -9.5227479167562835e-03  -1.1103234491869937e-02  -1.3837180418265402e-02  -1.7967136629490260e-02  -2.2221136120375590e-02  -2.0237533897740134e-02  -1.1905041845021684e-02  -2.5117563833799571e-03  -9.2677474547318413e-05  -1.7960650548475155e-03  -1.8659318792544285e-02  -3.1387775075316565e-02  -3.1470577005717572e-02  -3.1483179196543774e-02  -3.1451141920947494e-02  -3.1292091104870821e-02  -2.4905202153401550e-02  -1.4482947713458896e-02  -1.0459600966293083e-02  -9.6703824625456718e-03  -9.3827613765666736e-03  -9.0462860410997822e-03  -8.6622602421933242e-03  -8.2561073106853441e-03  -7.8414446158071634e-03  -7.4333932174493788e-03  -7.0491712953500915e-03  -6.7047479877432930e-03  -6.4104867519808898e-03  -6.1688998947530610e-03  -5.9771358125563058e-03  -5.8311429551419396e-03  -5.7281739686805997e-03  -5.6671367279766535e-03  -5.6478676454115705e-03  -5.6703820797709614e-03  -5.7346247701824740e-03  -5.8408565819678456e-03  -5.9905123976427025e-03  -6.1868998436142063e-03  -6.4344820525063301e-03  -6.7360346733652465e-03  -7.0872898802909201e-03  -7.4777663518565841e-03  -7.8934520376560055e-03  -8.3218385676836273e-03  -8.7369485616162878e-03  -9.1354823337235075e-03  -9.4970619002437869e-03  -9.9039793193985426e-03  -1.1584196655309206e-02  -1.5107634836702357e-02  -2.3281278211035962e-02  -3.1256465542959876e-02  -3.1409740034515292e-02  -3.1471960495638142e-02  -3.1489248977802836e-02  -3.1465331665833644e-02  -1.9022434676515196e-02  -1.7101408151130783e-03  -9.3621101269326257e-03  -3.1481661038566186e-02  -3.1509085733190605e-02  -3.1512658623657534e-02  -3.1517123920884633e-02  -3.1509193621975302e-02  -3.1486327318771185e-02  -3.1478245344697911e-02  -3.1101267931524484e-02  -1.9389672571051231e-02  -1.2111694237186395e-02  -1.0150538999620533e-02  -9.4662369891068705e-03  -8.9315154434461506e-03  -8.4325117026773835e-03  -7.9421345218518794e-03  -7.4695373457481567e-03  -7.0314628363412363e-03  -6.6465707061660415e-03  -6.3267141538933987e-03  -6.0711813312983040e-03  -5.8719258975124576e-03  -5.7211294667809786e-03  -5.6145599929702580e-03  -5.5511134068805812e-03  -5.5310204859981222e-03  -5.5544490756995928e-03  -5.6210728670675640e-03  -5.7306904626629402e-03  -5.8849098196758140e-03  -6.0888795886517707e-03  -6.3512372423937110e-03  -6.6804956212014564e-03  -7.0742870359649570e-03  -7.5175902647077724e-03  -8.0010285711384285e-03  -8.5065027297180039e-03  -9.0512842632675620e-03  -9.7055665257606161e-03  -1.0637314861215821e-02  -1.3015592533567816e-02  -1.9300056485902699e-02  -3.0665897623124844e-02  -3.1406838862267687e-02  -3.1485827091813585e-02  -3.1505262397851667e-02  -3.1510424670844542e-02  -3.1518237860591825e-02  -3.1517376240748969e-02  -3.1499075066462129e-02  -7.0938728633885822e-03  -1.5745101267262810e-02  -3.1509143940519464e-02  -3.1516182916007468e-02  -3.1514973535989949e-02  -3.1518087645424193e-02  -3.1513826123365250e-02  -3.1513523322114233e-02  -3.1505697321041977e-02  -3.1473348351705045e-02  -3.1328018638425097e-02  -2.4627719396502809e-02  -1.3856384091168635e-02  -1.0265599716606795e-02  -9.2669808239491235e-03  -8.6333074296002215e-03  -8.0513135915476920e-03  -7.5038372552049329e-03  -7.0010655960614709e-03  -6.5678209801858529e-03  -6.2210805008731333e-03  -5.9540892368465806e-03  -5.7498662113463278e-03  -5.5953304078601301e-03  -5.4850359783116982e-03  -5.4187099560752050e-03  -5.3976028273894500e-03  -5.4222296462955151e-03  -5.4917237873952406e-03  -5.6046709463855229e-03  -5.7620623844529964e-03  -5.9707326786947847e-03  -6.2456824064425175e-03  -6.6049429244148562e-03  -7.0523031416059659e-03  -7.5522199470239651e-03  -8.1271986534750193e-03  -8.7303970939484211e-03  -9.5562849222615674e-03  -1.1233456347173097e-02  -1.4600180108018274e-02  -2.3152338433829002e-02  -3.1335093635852775e-02  -3.1469369719447984e-02  -3.1498753349816055e-02  -3.1509270999307025e-02  -3.1509655264584185e-02  -3.1511338001192969e-02  -3.1519158456617055e-02  -3.1512430792458385e-02  -3.1506668021495786e-02  -1.5757667022680149e-02  -1.8373046602419701e-02  -3.1731031484798840e-02  -3.1517793617436257e-02  -3.1527682135042534e-02  -3.1514794645852856e-02  -3.1515699345505230e-02  -3.1513862442376743e-02  -3.1514969985375334e-02  -3.1509868385804357e-02  -3.1466639651194998e-02  -3.1374421458722497e-02  -2.9570665464742771e-02  -1.5771049010760464e-02  -1.0437382534842051e-02  -8.9836550331477728e-03  -8.1903067890033449e-03  -7.5442874230113154e-03  -6.9573436547653994e-03  -6.4623139988337040e-03  -6.0893578886362853e-03  -5.8169050167413382e-03  -5.6121561144402386e-03  -5.4552221468469010e-03  -5.3405736521697968e-03  -5.2704121876306943e-03  -5.2479667619027481e-03  -5.2743465187768930e-03  -5.3477909248054682e-03  -5.4645217251627935e-03  -5.6231856797382841e-03  -5.8317114190744928e-03  -6.1140984274278493e-03  -6.5027631690170121e-03  -7.0329804051833117e-03  -7.6042323478889224e-03  -8.3386868233570645e-03  -9.2560779422022135e-03  -1.1689227103770648e-02  -1.6478630618277420e-02  -2.7392233976685727e-02  -3.1320820978349664e-02  -3.1470752512442704e-02  -3.1511308684138678e-02  -3.1507502765386233e-02  -3.1514388299154282e-02  -3.1515018828375221e-02  -3.1521740138913693e-02  -3.1527702454298166e-02  -3.1514074567759273e-02  -3.1989924615574747e-02  -1.6695631512494601e-02  -2.8545031017451112e-02  -4.6196440248109802e-02  -3.5680460507219076e-02  -3.1539196974508001e-02  -3.1522054183445621e-02  -3.1516560261505407e-02  -3.1517016154665907e-02  -3.1512621203693233e-02  -3.1513796934778647e-02  -3.1511545172378287e-02  -3.1485806743457176e-02  -3.1477250581884858e-02  -3.1117548484288899e-02  -1.9380336053400837e-02  -1.1553982941616936e-02  -8.7793398551291035e-03  -7.7293579243023804e-03  -6.9492673359080916e-03  -6.3458814267923552e-03  -5.9437846162300060e-03  -5.6723806027247402e-03  -5.4708919837201742e-03  -5.3110905074203038e-03  -5.1894835688970310e-03  -5.1133708708606665e-03  -5.0890181331985857e-03  -5.1183306106779300e-03  -5.1986986022509564e-03  -5.3227648055920737e-03  -5.4836257092639191e-03  -5.6904485111848070e-03  -5.9774122479689653e-03  -6.4048699234803162e-03  -7.1104042745266053e-03  -7.9022049360985835e-03  -9.5129642585947555e-03  -1.2580487869385615e-02  -1.9140650517058523e-02  -3.0831552148262924e-02  -3.1464076564410345e-02  -3.1484674858937946e-02  -3.1496757497358148e-02  -3.1506168573545268e-02  -3.1515322167791633e-02  -3.1515533920833484e-02  -3.1521197658273763e-02  -3.1518889020720468e-02  -3.1552240423717480e-02  -3.7755600202006662e-02  -4.7972645669481340e-02  -2.5128940658758481e-02  -3.5088346275976692e-02  -6.0558198378359969e-02  -4.6034925438878979e-02  -3.5323692511487280e-02  -3.1533378332857694e-02  -3.1521182025628869e-02  -3.1516953875266478e-02  -3.1516066251536703e-02  -3.1512703400430199e-02  -3.1512902889875377e-02  -3.1515685252223376e-02  -3.1506792669620191e-02  -3.1480909357522326e-02  -3.1317201623347730e-02  -2.6620731397094033e-02  -1.5927950214139137e-02  -1.0527302674567220e-02  -7.9832604958015325e-03  -6.7591579503251484e-03  -6.1319314203203005e-03  -5.7618751478633167e-03  -5.5071761620757199e-03  -5.3104629920900925e-03  -5.1616601075240567e-03  -5.0701070532406002e-03  -5.0423070285423414e-03  -5.0801691656535064e-03  -5.1828911494646085e-03  -5.3433158677753285e-03  -5.5537425471173432e-03  -5.8419995105747592e-03  -6.2790038476396286e-03  -7.0471441876713654e-03  -8.8039384803094024e-03  -1.1387653711724666e-02  -1.5769688865001897e-02  -2.5269240460302125e-02  -3.1280577070053189e-02  -3.1478612316834992e-02  -3.1518906694503628e-02  -3.1506632971257317e-02  -3.1507015240950627e-02  -3.1514893277431059e-02  -3.1516023355165984e-02  -3.1517131370980701e-02  -3.1517971067615343e-02  -3.1549248561561494e-02  -3.6379035211771348e-02  -4.6473938394458562e-02  -6.0512867332427604e-02  -3.3675651811480037e-02  -3.4022206036158756e-02  -6.2920996316016164e-02  -5.0486160010579095e-02  -3.9866034604940641e-02  -3.2862460999964350e-02  -3.1523284046125630e-02  -3.1516932671409696e-02  -3.1516250441051434e-02  -3.1516602963161923e-02  -3.1513494834501957e-02  -3.1513820923707324e-02  -3.1518161668986210e-02  -3.1511434921204853e-02  -3.1483049198729463e-02  -3.1455051498837122e-02  -3.1269349193942871e-02  -2.7998159359896670e-02  -1.9592044931217703e-02  -1.4520392407879147e-02  -1.1863383538514813e-02  -1.0259763574542297e-02  -9.2340990408478676e-03  -8.5514602184833654e-03  -8.1210618858214515e-03  -7.8962838845722111e-03  -7.8412403265543541e-03  -7.9442184473244928e-03  -8.2185671434422316e-03  -8.6811751489906924e-03  -9.3554302283208775e-03  -1.0366836038897539e-02  -1.1909329920036304e-02  -1.4428598909472526e-02  -1.9196819210160594e-02  -2.7255167128030333e-02  -3.1159166051164741e-02  -3.1452822136307998e-02  -3.1480010306920596e-02  -3.1508099157246026e-02  -3.1509652334875182e-02  -3.1511407326234059e-02  -3.1516421635755833e-02  -3.1515773325925749e-02  -3.1515462946131285e-02  -3.1515560373765100e-02  -3.1524588926881383e-02  -3.3368410411754992e-02  -3.9808101278383835e-02  -4.9837694683360551e-02  -6.2151395298012703e-02  -3.5187611322672833e-02  -2.5792414017428669e-02  -5.2494343030720036e-02  -4.5941651331615950e-02  -3.9550209365297927e-02  -3.4282088323337803e-02  -3.1575528528122822e-02  -3.1520155776801777e-02  -3.1512002700858049e-02  -3.1516662268601454e-02  -3.1517258914048871e-02  -3.1514886702545375e-02  -3.1513861945586814e-02  -3.1517372479239247e-02  -3.1517014155098382e-02  -3.1507838287971136e-02  -3.1491665279537458e-02  -3.1483720330678304e-02  -3.1409007042678919e-02  -3.1264139072647655e-02  -3.1267338411913918e-02  -3.1010054126782909e-02  -3.0609530858213042e-02  -2.9918412165759148e-02  -2.9138158015050934e-02  -2.8591428095427002e-02  -2.8395440874944940e-02  -2.8559777339436328e-02  -2.9076195355889761e-02  -2.9837833055495224e-02  -3.0545591430670500e-02  -3.0977509100412776e-02  -3.1247128115596844e-02  -3.1270263428138441e-02  -3.1361607064929735e-02  -3.1497833745723278e-02  -3.1478742338934912e-02  -3.1502805222778658e-02  -3.1512681545343695e-02  -3.1506652954990402e-02  -3.1513542289556828e-02  -3.1517830339804633e-02  -3.1517238726470484e-02  -3.1513392600244397e-02  -3.1515902948876864e-02  -3.1514578540425310e-02  -3.1603896177293027e-02  -3.4161217867286452e-02  -3.8796828387293508e-02  -4.4797091358840163e-02  -5.1215221411321191e-02  -2.9062940170505876e-02  -1.6743522925072432e-02  -3.6215841214282424e-02  -3.5951779400609167e-02  -3.4752883265838461e-02  -3.3051349770117096e-02  -3.1658234267720027e-02  -3.1522114873295579e-02  -3.1514292625868273e-02  -3.1511629504326080e-02  -3.1516485319269073e-02  -3.1518314837972954e-02  -3.1515725973730375e-02  -3.1513195054377587e-02  -3.1515314312562742e-02  -3.1519210341848736e-02  -3.1521402324870211e-02  -3.1523248798752394e-02  -3.1512795272830539e-02  -3.1486561029659438e-02  -3.1485550918497800e-02  -3.1489119666549513e-02  -3.1475951004495802e-02  -3.1480456896650431e-02  -3.1478560834059054e-02  -3.1476433590496872e-02  -3.1475955428771407e-02  -3.1477107960061763e-02  -3.1478802133358554e-02  -3.1480146353033513e-02  -3.1480652455766416e-02  -3.1480230436964171e-02  -