<?xml version="1.0"?>
<VTKFile type="UnstructuredGrid"  version="0.1"  >
<UnstructuredGrid>
<Piece  NumberOfPoints="2601" NumberOfCells="5000">
<Points>
<DataArray  type="Float64"  NumberOfComponents="3"  format="ascii">0 0 0  0.03 0 0  0.06 0 0  0.09 0 0  0.12 0 0  0.15 0 0  0.18 0 0  0.21 0 0  0.24 0 0  0.27 0 0  0.3 0 0  0.33 0 0  0.36 0 0  0.39 0 0  0.42 0 0  0.45 0 0  0.48 0 0  0.51 0 0  0.54 0 0  0.57 0 0  0.6 0 0  0.63 0 0  0.66 0 0  0.6899999999999999 0 0  0.72 0 0  0.75 0 0  0.78 0 0  0.8100000000000001 0 0  0.84 0 0  0.87 0 0  0.9 0 0  0.93 0 0  0.96 0 0  0.99 0 0  1.02 0 0  1.05 0 0  1.08 0 0  1.11 0 0  1.14 0 0  1.17 0 0  1.2 0 0  1.23 0 0  1.26 0 0  1.29 0 0  1.32 0 0  1.35 0 0  1.38 0 0  1.41 0 0  1.44 0 0  1.47 0 0  1.5 0 0  0 0.02 0  0.03 0.02 0  0.06 0.02 0  0.09 0.02 0  0.12 0.02 0  0.15 0.02 0  0.18 0.02 0  0.21 0.02 0  0.24 0.02 0  0.27 0.02 0  0.3 0.02 0  0.33 0.02 0  0.36 0.02 0  0.39 0.02 0  0.42 0.02 0  0.45 0.02 0  0.48 0.02 0  0.51 0.02 0  0.54 0.02 0  0.57 0.02 0  0.6 0.02 0  0.63 0.02 0  0.66 0.02 0  0.6899999999999999 0.02 0  0.72 0.02 0  0.75 0.02 0  0.78 0.02 0  0.8100000000000001 0.02 0  0.84 0.02 0  0.87 0.02 0  0.9 0.02 0  0.93 0.02 0  0.96 0.02 0  0.99 0.02 0  1.02 0.02 0  1.05 0.02 0  1.08 0.02 0  1.11 0.02 0  1.14 0.02 0  1.17 0.02 0  1.2 0.02 0  1.23 0.02 0  1.26 0.02 0  1.29 0.02 0  1.32 0.02 0  1.35 0.02 0  1.38 0.02 0  1.41 0.02 0  1.44 0.02 0  1.47 0.02 0  1.5 0.02 0  0 0.04 0  0.03 0.04 0  0.06 0.04 0  0.09 0.04 0  0.12 0.04 0  0.15 0.04 0  0.18 0.04 0  0.21 0.04 0  0.24 0.04 0  0.27 0.04 0  0.3 0.04 0  0.33 0.04 0  0.36 0.04 0  0.39 0.04 0  0.42 0.04 0  0.45 0.04 0  0.48 0.04 0  0.51 0.04 0  0.54 0.04 0  0.57 0.04 0  0.6 0.04 0  0.63 0.04 0  0.66 0.04 0  0.6899999999999999 0.04 0  0.72 0.04 0  0.75 0.04 0  0.78 0.04 0  0.8100000000000001 0.04 0  0.84 0.04 0  0.87 0.04 0  0.9 0.04 0  0.93 0.04 0  0.96 0.04 0  0.99 0.04 0  1.02 0.04 0  1.05 0.04 0  1.08 0.04 0  1.11 0.04 0  1.14 0.04 0  1.17 0.04 0  1.2 0.04 0  1.23 0.04 0  1.26 0.04 0  1.29 0.04 0  1.32 0.04 0  1.35 0.04 0  1.38 0.04 0  1.41 0.04 0  1.44 0.04 0  1.47 0.04 0  1.5 0.04 0  0 0.06 0  0.03 0.06 0  0.06 0.06 0  0.09 0.06 0  0.12 0.06 0  0.15 0.06 0  0.18 0.06 0  0.21 0.06 0  0.24 0.06 0  0.27 0.06 0  0.3 0.06 0  0.33 0.06 0  0.36 0.06 0  0.39 0.06 0  0.42 0.06 0  0.45 0.06 0  0.48 0.06 0  0.51 0.06 0  0.54 0.06 0  0.57 0.06 0  0.6 0.06 0  0.63 0.06 0  0.66 0.06 0  0.6899999999999999 0.06 0  0.72 0.06 0  0.75 0.06 0  0.78 0.06 0  0.8100000000000001 0.06 0  0.84 0.06 0  0.87 0.06 0  0.9 0.06 0  0.93 0.06 0  0.96 0.06 0  0.99 0.06 0  1.02 0.06 0  1.05 0.06 0  1.08 0.06 0  1.11 0.06 0  1.14 0.06 0  1.17 0.06 0  1.2 0.06 0  1.23 0.06 0  1.26 0.06 0  1.29 0.06 0  1.32 0.06 0  1.35 0.06 0  1.38 0.06 0  1.41 0.06 0  1.44 0.06 0  1.47 0.06 0  1.5 0.06 0  0 0.08 0  0.03 0.08 0  0.06 0.08 0  0.09 0.08 0  0.12 0.08 0  0.15 0.08 0  0.18 0.08 0  0.21 0.08 0  0.24 0.08 0  0.27 0.08 0  0.3 0.08 0  0.33 0.08 0  0.36 0.08 0  0.39 0.08 0  0.42 0.08 0  0.45 0.08 0  0.48 0.08 0  0.51 0.08 0  0.54 0.08 0  0.57 0.08 0  0.6 0.08 0  0.63 0.08 0  0.66 0.08 0  0.6899999999999999 0.08 0  0.72 0.08 0  0.75 0.08 0  0.78 0.08 0  0.8100000000000001 0.08 0  0.84 0.08 0  0.87 0.08 0  0.9 0.08 0  0.93 0.08 0  0.96 0.08 0  0.99 0.08 0  1.02 0.08 0  1.05 0.08 0  1.08 0.08 0  1.11 0.08 0  1.14 0.08 0  1.17 0.08 0  1.2 0.08 0  1.23 0.08 0  1.26 0.08 0  1.29 0.08 0  1.32 0.08 0  1.35 0.08 0  1.38 0.08 0  1.41 0.08 0  1.44 0.08 0  1.47 0.08 0  1.5 0.08 0  0 0.1 0  0.03 0.1 0  0.06 0.1 0  0.09 0.1 0  0.12 0.1 0  0.15 0.1 0  0.18 0.1 0  0.21 0.1 0  0.24 0.1 0  0.27 0.1 0  0.3 0.1 0  0.33 0.1 0  0.36 0.1 0  0.39 0.1 0  0.42 0.1 0  0.45 0.1 0  0.48 0.1 0  0.51 0.1 0  0.54 0.1 0  0.57 0.1 0  0.6 0.1 0  0.63 0.1 0  0.66 0.1 0  0.6899999999999999 0.1 0  0.72 0.1 0  0.75 0.1 0  0.78 0.1 0  0.8100000000000001 0.1 0  0.84 0.1 0  0.87 0.1 0  0.9 0.1 0  0.93 0.1 0  0.96 0.1 0  0.99 0.1 0  1.02 0.1 0  1.05 0.1 0  1.08 0.1 0  1.11 0.1 0  1.14 0.1 0  1.17 0.1 0  1.2 0.1 0  1.23 0.1 0  1.26 0.1 0  1.29 0.1 0  1.32 0.1 0  1.35 0.1 0  1.38 0.1 0  1.41 0.1 0  1.44 0.1 0  1.47 0.1 0  1.5 0.1 0  0 0.12 0  0.03 0.12 0  0.06 0.12 0  0.09 0.12 0  0.12 0.12 0  0.15 0.12 0  0.18 0.12 0  0.21 0.12 0  0.24 0.12 0  0.27 0.12 0  0.3 0.12 0  0.33 0.12 0  0.36 0.12 0  0.39 0.12 0  0.42 0.12 0  0.45 0.12 0  0.48 0.12 0  0.51 0.12 0  0.54 0.12 0  0.57 0.12 0  0.6 0.12 0  0.63 0.12 0  0.66 0.12 0  0.6899999999999999 0.12 0  0.72 0.12 0  0.75 0.12 0  0.78 0.12 0  0.8100000000000001 0.12 0  0.84 0.12 0  0.87 0.12 0  0.9 0.12 0  0.93 0.12 0  0.96 0.12 0  0.99 0.12 0  1.02 0.12 0  1.05 0.12 0  1.08 0.12 0  1.11 0.12 0  1.14 0.12 0  1.17 0.12 0  1.2 0.12 0  1.23 0.12 0  1.26 0.12 0  1.29 0.12 0  1.32 0.12 0  1.35 0.12 0  1.38 0.12 0  1.41 0.12 0  1.44 0.12 0  1.47 0.12 0  1.5 0.12 0  0 0.14 0  0.03 0.14 0  0.06 0.14 0  0.09 0.14 0  0.12 0.14 0  0.15 0.14 0  0.18 0.14 0  0.21 0.14 0  0.24 0.14 0  0.27 0.14 0  0.3 0.14 0  0.33 0.14 0  0.36 0.14 0  0.39 0.14 0  0.42 0.14 0  0.45 0.14 0  0.48 0.14 0  0.51 0.14 0  0.54 0.14 0  0.57 0.14 0  0.6 0.14 0  0.63 0.14 0  0.66 0.14 0  0.6899999999999999 0.14 0  0.72 0.14 0  0.75 0.14 0  0.78 0.14 0  0.8100000000000001 0.14 0  0.84 0.14 0  0.87 0.14 0  0.9 0.14 0  0.93 0.14 0  0.96 0.14 0  0.99 0.14 0  1.02 0.14 0  1.05 0.14 0  1.08 0.14 0  1.11 0.14 0  1.14 0.14 0  1.17 0.14 0  1.2 0.14 0  1.23 0.14 0  1.26 0.14 0  1.29 0.14 0  1.32 0.14 0  1.35 0.14 0  1.38 0.14 0  1.41 0.14 0  1.44 0.14 0  1.47 0.14 0  1.5 0.14 0  0 0.16 0  0.03 0.16 0  0.06 0.16 0  0.09 0.16 0  0.12 0.16 0  0.15 0.16 0  0.18 0.16 0  0.21 0.16 0  0.24 0.16 0  0.27 0.16 0  0.3 0.16 0  0.33 0.16 0  0.36 0.16 0  0.39 0.16 0  0.42 0.16 0  0.45 0.16 0  0.48 0.16 0  0.51 0.16 0  0.54 0.16 0  0.57 0.16 0  0.6 0.16 0  0.63 0.16 0  0.66 0.16 0  0.6899999999999999 0.16 0  0.72 0.16 0  0.75 0.16 0  0.78 0.16 0  0.8100000000000001 0.16 0  0.84 0.16 0  0.87 0.16 0  0.9 0.16 0  0.93 0.16 0  0.96 0.16 0  0.99 0.16 0  1.02 0.16 0  1.05 0.16 0  1.08 0.16 0  1.11 0.16 0  1.14 0.16 0  1.17 0.16 0  1.2 0.16 0  1.23 0.16 0  1.26 0.16 0  1.29 0.16 0  1.32 0.16 0  1.35 0.16 0  1.38 0.16 0  1.41 0.16 0  1.44 0.16 0  1.47 0.16 0  1.5 0.16 0  0 0.18 0  0.03 0.18 0  0.06 0.18 0  0.09 0.18 0  0.12 0.18 0  0.15 0.18 0  0.18 0.18 0  0.21 0.18 0  0.24 0.18 0  0.27 0.18 0  0.3 0.18 0  0.33 0.18 0  0.36 0.18 0  0.39 0.18 0  0.42 0.18 0  0.45 0.18 0  0.48 0.18 0  0.51 0.18 0  0.54 0.18 0  0.57 0.18 0  0.6 0.18 0  0.63 0.18 0  0.66 0.18 0  0.6899999999999999 0.18 0  0.72 0.18 0  0.75 0.18 0  0.78 0.18 0  0.8100000000000001 0.18 0  0.84 0.18 0  0.87 0.18 0  0.9 0.18 0  0.93 0.18 0  0.96 0.18 0  0.99 0.18 0  1.02 0.18 0  1.05 0.18 0  1.08 0.18 0  1.11 0.18 0  1.14 0.18 0  1.17 0.18 0  1.2 0.18 0  1.23 0.18 0  1.26 0.18 0  1.29 0.18 0  1.32 0.18 0  1.35 0.18 0  1.38 0.18 0  1.41 0.18 0  1.44 0.18 0  1.47 0.18 0  1.5 0.18 0  0 0.2 0  0.03 0.2 0  0.06 0.2 0  0.09 0.2 0  0.12 0.2 0  0.15 0.2 0  0.18 0.2 0  0.21 0.2 0  0.24 0.2 0  0.27 0.2 0  0.3 0.2 0  0.33 0.2 0  0.36 0.2 0  0.39 0.2 0  0.42 0.2 0  0.45 0.2 0  0.48 0.2 0  0.51 0.2 0  0.54 0.2 0  0.57 0.2 0  0.6 0.2 0  0.63 0.2 0  0.66 0.2 0  0.6899999999999999 0.2 0  0.72 0.2 0  0.75 0.2 0  0.78 0.2 0  0.8100000000000001 0.2 0  0.84 0.2 0  0.87 0.2 0  0.9 0.2 0  0.93 0.2 0  0.96 0.2 0  0.99 0.2 0  1.02 0.2 0  1.05 0.2 0  1.08 0.2 0  1.11 0.2 0  1.14 0.2 0  1.17 0.2 0  1.2 0.2 0  1.23 0.2 0  1.26 0.2 0  1.29 0.2 0  1.32 0.2 0  1.35 0.2 0  1.38 0.2 0  1.41 0.2 0  1.44 0.2 0  1.47 0.2 0  1.5 0.2 0  0 0.22 0  0.03 0.22 0  0.06 0.22 0  0.09 0.22 0  0.12 0.22 0  0.15 0.22 0  0.18 0.22 0  0.21 0.22 0  0.24 0.22 0  0.27 0.22 0  0.3 0.22 0  0.33 0.22 0  0.36 0.22 0  0.39 0.22 0  0.42 0.22 0  0.45 0.22 0  0.48 0.22 0  0.51 0.22 0  0.54 0.22 0  0.57 0.22 0  0.6 0.22 0  0.63 0.22 0  0.66 0.22 0  0.6899999999999999 0.22 0  0.72 0.22 0  0.75 0.22 0  0.78 0.22 0  0.8100000000000001 0.22 0  0.84 0.22 0  0.87 0.22 0  0.9 0.22 0  0.93 0.22 0  0.96 0.22 0  0.99 0.22 0  1.02 0.22 0  1.05 0.22 0  1.08 0.22 0  1.11 0.22 0  1.14 0.22 0  1.17 0.22 0  1.2 0.22 0  1.23 0.22 0  1.26 0.22 0  1.29 0.22 0  1.32 0.22 0  1.35 0.22 0  1.38 0.22 0  1.41 0.22 0  1.44 0.22 0  1.47 0.22 0  1.5 0.22 0  0 0.24 0  0.03 0.24 0  0.06 0.24 0  0.09 0.24 0  0.12 0.24 0  0.15 0.24 0  0.18 0.24 0  0.21 0.24 0  0.24 0.24 0  0.27 0.24 0  0.3 0.24 0  0.33 0.24 0  0.36 0.24 0  0.39 0.24 0  0.42 0.24 0  0.45 0.24 0  0.48 0.24 0  0.51 0.24 0  0.54 0.24 0  0.57 0.24 0  0.6 0.24 0  0.63 0.24 0  0.66 0.24 0  0.6899999999999999 0.24 0  0.72 0.24 0  0.75 0.24 0  0.78 0.24 0  0.8100000000000001 0.24 0  0.84 0.24 0  0.87 0.24 0  0.9 0.24 0  0.93 0.24 0  0.96 0.24 0  0.99 0.24 0  1.02 0.24 0  1.05 0.24 0  1.08 0.24 0  1.11 0.24 0  1.14 0.24 0  1.17 0.24 0  1.2 0.24 0  1.23 0.24 0  1.26 0.24 0  1.29 0.24 0  1.32 0.24 0  1.35 0.24 0  1.38 0.24 0  1.41 0.24 0  1.44 0.24 0  1.47 0.24 0  1.5 0.24 0  0 0.26 0  0.03 0.26 0  0.06 0.26 0  0.09 0.26 0  0.12 0.26 0  0.15 0.26 0  0.18 0.26 0  0.21 0.26 0  0.24 0.26 0  0.27 0.26 0  0.3 0.26 0  0.33 0.26 0  0.36 0.26 0  0.39 0.26 0  0.42 0.26 0  0.45 0.26 0  0.48 0.26 0  0.51 0.26 0  0.54 0.26 0  0.57 0.26 0  0.6 0.26 0  0.63 0.26 0  0.66 0.26 0  0.6899999999999999 0.26 0  0.72 0.26 0  0.75 0.26 0  0.78 0.26 0  0.8100000000000001 0.26 0  0.84 0.26 0  0.87 0.26 0  0.9 0.26 0  0.93 0.26 0  0.96 0.26 0  0.99 0.26 0  1.02 0.26 0  1.05 0.26 0  1.08 0.26 0  1.11 0.26 0  1.14 0.26 0  1.17 0.26 0  1.2 0.26 0  1.23 0.26 0  1.26 0.26 0  1.29 0.26 0  1.32 0.26 0  1.35 0.26 0  1.38 0.26 0  1.41 0.26 0  1.44 0.26 0  1.47 0.26 0  1.5 0.26 0  0 0.28 0  0.03 0.28 0  0.06 0.28 0  0.09 0.28 0  0.12 0.28 0  0.15 0.28 0  0.18 0.28 0  0.21 0.28 0  0.24 0.28 0  0.27 0.28 0  0.3 0.28 0  0.33 0.28 0  0.36 0.28 0  0.39 0.28 0  0.42 0.28 0  0.45 0.28 0  0.48 0.28 0  0.51 0.28 0  0.54 0.28 0  0.57 0.28 0  0.6 0.28 0  0.63 0.28 0  0.66 0.28 0  0.6899999999999999 0.28 0  0.72 0.28 0  0.75 0.28 0  0.78 0.28 0  0.8100000000000001 0.28 0  0.84 0.28 0  0.87 0.28 0  0.9 0.28 0  0.93 0.28 0  0.96 0.28 0  0.99 0.28 0  1.02 0.28
[...]
<PointData  Scalars="sensitivity"> 
<DataArray  type="Float64"  Name="sensitivity"  format="ascii">-1.2454275350280016e-06  -1.7938345125725677e-05  -7.4584118257019089e-05  -1.8969580821378288e-04  -3.6351072991717124e-04  -5.7376298424123432e-04  -7.8925626882513978e-04  -9.8394552048532472e-04  -1.1427224467496920e-03  -1.2606292563634833e-03  -1.3392920229101212e-03  -1.3836221643725403e-03  -1.3998119364461929e-03  -1.3942743235568046e-03  -1.3730580568220808e-03  -1.3415258606413682e-03  -1.3042086437838939e-03  -1.2647740462971382e-03  -1.2260645339247705e-03  -1.1901800087455131e-03  -1.1585910317724083e-03  -1.1322692788997937e-03  -1.1118187291662676e-03  -1.0975914307290232e-03  -1.0897771129935153e-03  -1.0884630785889049e-03  -1.0936657145247284e-03  -1.1053359757647128e-03  -1.1233392650115963e-03  -1.1474076306560684e-03  -1.1770618018565062e-03  -1.2115040894480234e-03  -1.2494900653935127e-03  -1.2891930429487363e-03  -1.3280774575893611e-03  -1.3627957901792456e-03  -1.3891265219900084e-03  -1.4019830686103970e-03  -1.3955366375679832e-03  -1.3635047052440580e-03  -1.2996118458222289e-03  -1.1983855082595531e-03  -1.0566531469788371e-03  -8.7628577804473528e-04  -6.6777140928790961e-04  -4.5215066287843537e-04  -2.5894052180282961e-04  -1.1683045819514646e-04  -3.6925849161810898e-05  -5.2588983600253590e-06  -4.6224440796669360e-08  -9.1183334878076879e-06  -7.5015536605876960e-05  -2.9872947634941127e-04  -7.8457194299919335e-04  -1.5516294780435281e-03  -2.5117677082474844e-03  -3.5231521720932029e-03  -4.4575029012903890e-03  -5.2342479657326449e-03  -5.8221514889131099e-03  -6.2239556090203313e-03  -6.4601558582990702e-03  -6.5587112116053375e-03  -6.5495283018179220e-03  -6.4613620578143991e-03  -6.3200498497722659e-03  -6.1476565081516037e-03  -5.9622201737467824e-03  -5.7778605499375192e-03  -5.6051156417351242e-03  -5.4514401567730096e-03  -5.3218070732944283e-03  -5.2193350056993874e-03  -5.1458585399880219e-03  -5.1023813875984130e-03  -5.0893886234577622e-03  -5.1070223582532622e-03  -5.1551338621662656e-03  -5.2332171886143343e-03  -5.3402156716543456e-03  -5.4741867367674203e-03  -5.6318233350328567e-03  -5.8078622242404808e-03  -5.9944449989802672e-03  -6.1805123101470833e-03  -6.3512940389809161e-03  -6.4879690257239955e-03  -6.5676212719060368e-03  -6.5637314506033061e-03  -6.4473563718571913e-03  -6.1890433247789511e-03  -5.7620493955211384e-03  -5.1482179147952006e-03  -4.3487469494782162e-03  -3.4009733174769669e-03  -2.3905388410371329e-03  -1.4459466411586496e-03  -7.0778360698250942e-04  -2.5842740147464307e-04  -6.1514630907566392e-05  -3.4663550978000972e-06  -2.6222058831963756e-05  -1.4572073625588876e-04  -4.3563051623022128e-04  -1.0502410806213244e-03  -1.9917083578369780e-03  -3.1376610868664467e-03  -4.3222750499220123e-03  -5.4018896722450782e-03  -6.2892969491189984e-03  -6.9545523159014484e-03  -7.4043224569674123e-03  -7.6629901473472262e-03  -7.7626727538797650e-03  -7.7379051556366596e-03  -7.6221127686071513e-03  -7.4454260849334229e-03  -7.2336311472937049e-03  -7.0078498677965282e-03  -6.7846247506811799e-03  -6.5762632848351257e-03  -6.3913947317653817e-03  -6.2356857470677119e-03  -6.1126123343007936e-03  -6.0241665218046022e-03  -5.9714107238016661e-03  -5.9548511036791926e-03  -5.9746438599435330e-03  -6.0306589077672610e-03  -6.1224104461116962e-03  -6.2488399811331417e-03  -6.4079241314772438e-03  -6.5960956198345176e-03  -6.8075146248392018e-03  -7.0332921786010654e-03  -7.2607747287525073e-03  -7.4729554608025540e-03  -7.6480950192579231e-03  -7.7596432046341795e-03  -7.7768374553524190e-03  -7.6660085856518848e-03  -7.3932826834839666e-03  -6.9276163605630874e-03  -6.2460517565919877e-03  -5.3429137617395372e-03  -4.2529886580185321e-03  -3.0686640443904250e-03  -1.9271922969715492e-03  -9.9276888863887233e-04  -3.9699100811456975e-04  -1.2962997267482054e-04  -1.5886157676121190e-05  -4.2715560013047979e-05  -2.4623617501505328e-04  -6.4775488976355283e-04  -1.4049053827598040e-03  -2.4518498278376854e-03  -3.6380913355911742e-03  -4.8157922022116278e-03  -5.8554542046459828e-03  -6.6853240968697079e-03  -7.2923731038156709e-03  -7.6907951111080623e-03  -7.9050887219507988e-03  -7.9660351583917544e-03  -7.9073796538968733e-03  -7.7621012824191302e-03  -7.5599627257809440e-03  -7.3264627502050896e-03  -7.0825320405998263e-03  -6.8445502559378278e-03  -6.6245913952595516e-03  -6.4309291650225713e-03  -6.2687845824895378e-03  -6.1411829948848327e-03  -6.0497403306283230e-03  -5.9952567071418260e-03  -5.9780920301301700e-03  -5.9983605804669474e-03  -6.0559900239233683e-03  -6.1506617072916801e-03  -6.2816079702324888e-03  -6.4472148543212229e-03  -6.6443957085709736e-03  -6.8677754858253058e-03  -7.1088406572997111e-03  -7.3552076822097825e-03  -7.5901192745223989e-03  -7.7920988162605105e-03  -7.9347066611584437e-03  -7.9871869809155348e-03  -7.9161775126507222e-03  -7.6901040924531325e-03  -7.2781357470662689e-03  -6.6564244340699252e-03  -5.8090349969510627e-03  -4.7554091449827536e-03  -3.5779633740137496e-03  -2.3894655384977524e-03  -1.3308738504172538e-03  -5.7730323920359610e-04  -2.0977491262586130e-04  -3.3208525563025938e-05  -3.9679001600409764e-05  -3.7104252989542911e-04  -1.0689695119145549e-03  -2.1228820623932212e-03  -3.2855982360779096e-03  -4.4451309593776193e-03  -5.5524190716372346e-03  -6.4837126491362994e-03  -7.1934584113786740e-03  -7.6965076741838095e-03  -8.0106217164544590e-03  -8.1548624318882532e-03  -8.1563610456303493e-03  -8.0473939254515625e-03  -7.8598918551494069e-03  -7.6225520266568099e-03  -7.3600001214171205e-03  -7.0925669781878491e-03  -6.8361732766587316e-03  -6.6023759333747930e-03  -6.3987631658318856e-03  -6.2297532808949204e-03  -6.0976000968098283e-03  -6.0033066342132834e-03  -5.9472655804208860e-03  -5.9296178865243312e-03  -5.9504137268818463e-03  -6.0096585017067189e-03  -6.1072736656307023e-03  -6.2429323158153839e-03  -6.4156743908468806e-03  -6.6232167690321239e-03  -6.8609896024684740e-03  -7.1211428508487825e-03  -7.3918513184150483e-03  -7.6569994965267349e-03  -7.8956731700520130e-03  -8.0820680959892578e-03  -8.1861535911616282e-03  -8.1758723672324587e-03  -8.0213163717282095e-03  -7.6929288661065093e-03  -7.1800713301960794e-03  -6.4612520937829179e-03  -5.5110215787587177e-03  -4.4092206531029972e-03  -3.2557342919092816e-03  -2.0536907557162296e-03  -9.5853422886262442e-04  -2.7790846752774378e-04  -3.9547128886767232e-05  -4.3937918431786545e-05  -7.0114150554852401e-04  -2.6564586210635912e-03  -5.0024504639364208e-03  -6.0912485371209212e-03  -6.5018599256819430e-03  -6.9449113665790230e-03  -7.4397721320829504e-03  -7.8845153016731135e-03  -8.2246214262529042e-03  -8.4248822313669654e-03  -8.4762406555198479e-03  -8.3985907234402288e-03  -8.2229001800608898e-03  -7.9797633325367004e-03  -7.6962014135487462e-03  -7.3955493334250076e-03  -7.0973733379474336e-03  -6.8170773675050780e-03  -6.5655825186638136e-03  -6.3495140274871659e-03  -6.1721066149508074e-03  -6.0344892295124460e-03  -5.9368098689948244e-03  -5.8789262628298113e-03  -5.8607083849399515e-03  -5.8821283384033465e-03  -5.9432798761255056e-03  -6.0443777623707170e-03  -6.1856748846195690e-03  -6.3671285136230656e-03  -6.5876296905280777e-03  -6.8437926354382346e-03  -7.1286519414990712e-03  -7.4311019018653583e-03  -7.7356545029164071e-03  -8.0223450729716775e-03  -8.2677081369415435e-03  -8.4408081372488730e-03  -8.5092767827811468e-03  -8.4443891617984341e-03  -8.2581351832434133e-03  -7.9614890928223631e-03  -7.6213767365440914e-03  -7.2407564480816223e-03  -6.9468403836441843e-03  -6.4082793433995512e-03  -4.4057046819786184e-03  -1.8965904005204700e-03  -3.8700429946569485e-04  -2.6480163659088520e-05  -5.3957109193891739e-04  -2.9937271163933484e-03  -1.0767889781127466e-02  -1.9498787329721625e-02  -2.2054731633182341e-02  -1.8570565434206977e-02  -1.3691240195992610e-02  -1.0265209866329013e-02  -9.0600384662360717e-03  -8.9310156933105397e-03  -8.9461659127533563e-03  -8.8741557491731470e-03  -8.6955456278799553e-03  -8.4361706800496986e-03  -8.1240563600113863e-03  -7.7832409772838149e-03  -7.4352826502566312e-03  -7.0989284607096753e-03  -6.7891698613182123e-03  -6.5162781391679137e-03  -6.2855812344511973e-03  -6.0986017805826345e-03  -5.9548802429563487e-03  -5.8534392324925359e-03  -5.7934979666879344e-03  -5.7746351243432616e-03  -5.7967426167894230e-03  -5.8599965714861233e-03  -5.9649221782567055e-03  -6.1124692674486159e-03  -6.3038197820093232e-03  -6.5395437388034942e-03  -6.8179933460203309e-03  -7.1332385289135962e-03  -7.4748429013955873e-03  -7.8278893407476985e-03  -8.1753957202164440e-03  -8.4952475272820748e-03  -8.7517146740835848e-03  -8.9299867128905183e-03  -9.0133475021504893e-03  -9.1458611550718459e-03  -9.5866357059410726e-03  -1.1169611770710580e-02  -1.3995404136654777e-02  -1.8140366570900426e-02  -2.2005547605482238e-02  -2.0047397061770465e-02  -1.1847877223856822e-02  -2.4492086985823339e-03  -9.0402157152330828e-05  -1.7341320299363633e-03  -1.8297681505478704e-02  -3.1108748678032982e-02  -3.1443434591116148e-02  -3.1456113856721209e-02  -3.1074565757514012e-02  -3.0559306592198458e-02  -2.4582081197924842e-02  -1.4783442286281626e-02  -1.0649482655374451e-02  -9.6971939655927982e-03  -9.3673935443155283e-03  -9.0472404360363388e-03  -8.6849078002381019e-03  -8.2906900025922492e-03  -7.8816706628798104e-03  -7.4770576388269987e-03  -7.0948770123003295e-03  -6.7500679828055602e-03  -6.4524593511646232e-03  -6.2056183154910634e-03  -6.0085375404302236e-03  -5.8585292766110703e-03  -5.7532042154167327e-03  -5.6911015408468739e-03  -5.6715487409768886e-03  -5.6943759510973135e-03  -5.7598086388500197e-03  -5.8686277216209014e-03  -6.0225372036954482e-03  -6.2242968113788615e-03  -6.4768538881848966e-03  -6.7811736500360533e-03  -7.1325258827662982e-03  -7.5208775324453279e-03  -7.9322598752941727e-03  -8.3525773953232550e-03  -8.7583874662108818e-03  -9.1436055679110732e-03  -9.5157510726730180e-03  -9.9904720453224249e-03  -1.1624662864264114e-02  -1.5325344822048002e-02  -2.3248756723975420e-02  -3.0366892283612140e-02  -3.1294161075647517e-02  -3.1412953736980220e-02  -3.1408738858131426e-02  -3.1310789097399663e-02  -1.8537184211626687e-02  -1.5456453797284759e-03  -9.2043793647864011e-03  -3.1310815586305128e-02  -3.1418246602528128e-02  -3.1457611776957585e-02  -3.1491792987247885e-02  -3.1451817531211970e-02  -3.1333433447145197e-02  -3.1421682924627187e-02  -3.0280226188038613e-02  -1.9765809707963010e-02  -1.2369562463713665e-02  -1.0188170889286006e-02  -9.4833625996005051e-03  -8.9701702360119543e-03  -8.4782647961769587e-03  -7.9893330259069063e-03  -7.5183363271067389e-03  -7.0821729640739347e-03  -6.6964455106275954e-03  -6.3713189340210341e-03  -6.1078195829286563e-03  -5.9010191521414517e-03  -5.7451069505941215e-03  -5.6360334559783553e-03  -5.5717534735301045e-03  -5.5514867557141237e-03  -5.5750509633197883e-03  -5.6426523520406533e-03  -5.7551412980852094e-03  -5.9148938672267445e-03  -6.1265935308623190e-03  -6.3965657141902277e-03  -6.7300742459818078e-03  -7.1243234907494828e-03  -7.5668228088380017e-03  -8.0464890164226900e-03  -8.5492949236096218e-03  -9.0862064365469647e-03  -9.7252161348957370e-03  -1.0741763562547586e-02  -1.3239001149710548e-02  -1.9532109681330821e-02  -2.9571428123323560e-02  -3.1194665380337418e-02  -3.1278702338924512e-02  -3.1423318142768185e-02  -3.1468315577747166e-02  -3.1464073138005852e-02  -3.1465804486567758e-02  -3.1478840224257551e-02  -6.9391468176974447e-03  -1.5749247588236804e-02  -3.1512848763168094e-02  -3.1504611494233649e-02  -3.1494552883194769e-02  -3.1487412319950510e-02  -3.1465777476049117e-02  -3.1436991033068455e-02  -3.1468408587075621e-02  -3.1337249904766350e-02  -3.0903291689546062e-02  -2.4586079730140944e-02  -1.4181365285208369e-02  -1.0444241042314981e-02  -9.3565291642404100e-03  -8.6979410900407308e-03  -8.1063765897704063e-03  -7.5574157153568064e-03  -7.0576892498813723e-03  -6.6240816689933108e-03  -6.2693754739253284e-03  -5.9902794419466696e-03  -5.7753921381563473e-03  -5.6145876668213012e-03  -5.5020883938108715e-03  -5.4356285779472782e-03  -5.4146198087953335e-03  -5.4389627975971241e-03  -5.5087383960301895e-03  -5.6244727063270890e-03  -5.7888290673584943e-03  -6.0086668292066671e-03  -6.2952078740844877e-03  -6.6606949924806176e-03  -7.1072488651289928e-03  -7.6098352391065624e-03  -8.1822925960428859e-03  -8.8006133400843622e-03  -9.6366342409209080e-03  -1.1341318219468911e-02  -1.4897732879912697e-02  -2.3340955010003814e-02  -3.0639320869033555e-02  -3.1262055236139293e-02  -3.1451919393868710e-02  -3.1419458272245966e-02  -3.1448751643309736e-02  -3.1490743567825642e-02  -3.1503590313039995e-02  -3.1511992315474899e-02  -3.1532044912938782e-02  -1.5756331119774387e-02  -1.8480532752887323e-02  -3.2008885310604106e-02  -3.1547106354953031e-02  -3.1525741511730772e-02  -3.1517575614291221e-02  -3.1497779237225618e-02  -3.1475747071160028e-02  -3.1459963081183255e-02  -3.1440912600051850e-02  -3.1267495731632511e-02  -3.0939341089306308e-02  -2.8368078373256184e-02  -1.6319545158686298e-02  -1.0794316737303487e-02  -9.1181941400792100e-03  -8.2654591212720663e-03  -7.6039877728155784e-03  -7.0224989740018092e-03  -6.5291124435265056e-03  -6.1435869738966096e-03  -5.8522338437211174e-03  -5.6323566070443833e-03  -5.4681554136270169e-03  -5.3524903131577043e-03  -5.2837020214295824e-03  -5.2618898699881705e-03  -5.2871725410441311e-03  -5.3593470517006589e-03  -5.4780868169958582e-03  -5.6452071537847195e-03  -5.8699630389030047e-03  -6.1705501362190303e-03  -6.5701045983100103e-03  -7.0932148000310575e-03  -7.6780191166895221e-03  -8.4233060645579980e-03  -9.4318327232298261e-03  -1.1880297623224713e-02  -1.6882706127888211e-02  -2.6933699342183703e-02  -3.0814313288172697e-02  -3.1279332490204086e-02  -3.1376171281523597e-02  -3.1452121761688587e-02  -3.1488381989703045e-02  -3.1497978922914664e-02  -3.1512729743984350e-02  -3.1518526711531193e-02  -3.1551859538073601e-02  -3.2318913362338476e-02  -1.6880346789444160e-02  -2.8590202668581699e-02  -4.6322678305343840e-02  -3.5821412222767544e-02  -3.1612394837048433e-02  -3.1538595853946950e-02  -3.1517136247489100e-02  -3.1508106826556269e-02  -3.1488319855593569e-02  -3.1457223738333123e-02  -3.1422313977718233e-02  -3.1370067272458779e-02  -3.1255376981396354e-02  -3.0184978782651934e-02  -2.0046850797891241e-02  -1.2079324023435022e-02  -9.0175792193166494e-03  -7.8363953445951193e-03  -7.0445316705533192e-03  -6.4397989338227848e-03  -6.0133651550496447e-03  -5.7104503058739067e-03  -5.4868407912888406e-03  -5.3189907064443119e-03  -5.1989111924748855e-03  -5.1268328375361771e-03  -5.1040753632885108e-03  -5.1310269018967920e-03  -5.2072393598403552e-03  -5.3316796621735137e-03  -5.5023898127230684e-03  -5.7331836863567806e-03  -6.0526413891912947e-03  -6.5038126103338428e-03  -7.1960388143612894e-03  -8.0591475861339235e-03  -9.7609994807922092e-03  -1.2960447755111869e-02  -1.9648956919587329e-02  -2.9927304074967943e-02  -3.1299522916465608e-02  -3.1383160705675366e-02  -3.1374270886917459e-02  -3.1451546616295456e-02  -3.1484221800954622e-02  -3.1502609878892820e-02  -3.1512307988980137e-02  -3.1525599333106433e-02  -3.1675368124447739e-02  -3.7832902879797646e-02  -4.8080157683489215e-02  -2.5247160841099087e-02  -3.5118628443577452e-02  -6.0599660965651780e-02  -4.6090523437692696e-02  -3.5450973056700363e-02  -3.1614753384915879e-02  -3.1537571871531077e-02  -3.1516607979148015e-02  -3.1509950242453830e-02  -3.1490986824201879e-02  -3.1456422882744819e-02  -3.1438270179299246e-02  -3.1445892959940047e-02  -3.1255857214581191e-02  -3.0908856016177988e-02  -2.6506262954567036e-02  -1.6550254315775025e-02  -1.0999674276272032e-02  -8.3231247509788862e-03  -7.0045539382254298e-03  -6.3014637884515395e-03  -5.8672882788761713e-03  -5.5737138161966546e-03  -5.3640672687714375e-03  -5.2174381519675015e-03  -5.1315986081952236e-03  -5.1063216838756450e-03  -5.1412996511653085e-03  -5.2381180886042124e-03  -5.4008040849566671e-03  -5.6271175511591930e-03  -5.9571899151562935e-03  -6.4664459196320159e-03  -7.3147387044601277e-03  -9.0643081508637018e-03  -1.1775545287598161e-02  -1.6411228634084576e-02  -2.5286958478380112e-02  -3.0686043814900671e-02  -3.1342997709344754e-02  -3.1480287212615927e-02  -3.1444330115151027e-02  -3.1469270562621152e-02  -3.1483691995554605e-02  -3.1496994256229711e-02  -3.1512277664880677e-02  -3.1529704723315372e-02  -3.1670648494444266e-02  -3.6469358372570322e-02  -4.6536280823295958e-02  -6.0562773518403126e-02  -3.3710888104089197e-02  -3.4053627293234398e-02  -6.2949049883222835e-02  -5.0497964114719580e-02  -3.9934248246925708e-02  -3.3067310597291982e-02  -3.1578796022673876e-02  -3.1531689347372549e-02  -3.1511114453973019e-02  -3.1508180601530718e-02  -3.1494983154229626e-02  -3.1464848826984797e-02  -3.1444185211656997e-02  -3.1431591173401788e-02  -3.1357533542315644e-02  -3.1301409141537215e-02  -3.0785076323657162e-02  -2.7398457787594813e-02  -2.0156792854236837e-02  -1.5182490846826909e-02  -1.2392630652255267e-02  -1.0683363540107680e-02  -9.6200505769750751e-03  -8.9318536987280303e-03  -8.5052881620729052e-03  -8.2803796984122161e-03  -8.2214981479797958e-03  -8.3160115231819612e-03  -8.5774214892747874e-03  -9.0435965459485894e-03  -9.7331666131608933e-03  -1.0802642962585379e-02  -1.2473509962626672e-02  -1.5048375602014843e-02  -1.9760466033999904e-02  -2.6872438841994157e-02  -3.0753105035563329e-02  -3.1121556152835156e-02  -3.1277438599511348e-02  -3.1375251686128522e-02  -3.1453090370704040e-02  -3.1490777810682075e-02  -3.1491984541658219e-02  -3.1492730467088260e-02  -3.1507359293382262e-02  -3.1525109215546000e-02  -3.1591669069620354e-02  -3.3520714870836181e-02  -3.9871320894922464e-02  -4.9859029324753286e-02  -6.2183781153176472e-02  -3.5217441875289260e-02  -2.5861420069143642e-02  -5.2540581846930771e-02  -4.5958804097686955e-02  -3.9592770701293523e-02  -3.4437380554426647e-02  -3.1750240029768631e-02  -3.1559400513249021e-02  -3.1518539990617121e-02  -3.1506987239326795e-02  -3.1508136504687957e-02  -3.1501079235861977e-02  -3.1472991769457399e-02  -3.1441649306059430e-02  -3.1433649223936933e-02  -3.1446402223483390e-02  -3.1395784686173503e-02  -3.1303221323978447e-02  -3.1090132101467095e-02  -3.0741984509887643e-02  -3.0622584249397296e-02  -2.9900631386606053e-02  -2.9299521622062275e-02  -2.8636802922053988e-02  -2.8023826908733455e-02  -2.7634285402058024e-02  -2.7498857130258868e-02  -2.7611659687834897e-02  -2.7973628364806498e-02  -2.8569840002993657e-02  -2.9245304062517786e-02  -2.9792490922301684e-02  -3.0509049180306478e-02  -3.0869247698131552e-02  -3.0818340033856265e-02  -3.1319426694947840e-02  -3.1369969492225334e-02  -3.1435814461246513e-02  -3.1396259634397704e-02  -3.1439536543057617e-02  -3.1484724627141164e-02  -3.1498257436219472e-02  -3.1495588306868584e-02  -3.1498224150423929e-02  -3.1520556105894201e-02  -3.1552181064207263e-02  -3.1806025356250968e-02  -3.4306644824918721e-02  -3.8853579031057149e-02  -4.4817001675065971e-02  -5.1264004703336113e-02  -2.9101235879261812e-02  -1.6887796882750768e-02  -3.6330021122228086e-02  -3.6016357940794046e-02  -3.4841413843805853e-02  -3.3231434033990273e-02  -3.1889343354423109e-02  -3.1598810414179300e-02  -3.1542067142070147e-02  -3.1510654683631886e-02  -3.1505134504120687e-02  -3.1509511176100367e-02  -3.1506690988781672e-02  -3.1484180665593969e-02  -3.1453358797319766e-02  -3.1436903250740271e-02  -3.1436189456489197e-02  -3.1461321436726933e-02  -3.1488636761195905e-02  -3.1429551257475846e-02  -3.1380666949059617e-02  -3.1347306126116949e-02  -3.1317182004986607e-02  -3.1361766664375935e-02  -3.1338783898110928e-02  -3.1311120535693904e-02  -3.1310611188696484e-02  -3.1315509771371354e-02  -3.1322038477453990e-02  -3.1345705509331349e-02  -3.1365582747145335e-02  -3.1323425591824550e-02  -