<?xml version="1.0"?>
<VTKFile type="UnstructuredGrid"  version="0.1"  >
<UnstructuredGrid>
<Piece  NumberOfPoints="2601" NumberOfCells="5000">
<Points>
<DataArray  type="Float64"  NumberOfComponents="3"  format="ascii">0 0 0  0.03 0 0  0.06 0 0  0.09 0 0  0.12 0 0  0.15 0 0  0.18 0 0  0.21 0 0  0.24 0 0  0.27 0 0  0.3 0 0  0.33 0 0  0.36 0 0  0.39 0 0  0.42 0 0  0.45 0 0  0.48 0 0  0.51 0 0  0.54 0 0  0.57 0 0  0.6 0 0  0.63 0 0  0.66 0 0  0.6899999999999999 0 0  0.72 0 0  0.75 0 0  0.78 0 0  0.8100000000000001 0 0  0.84 0 0  0.87 0 0  0.9 0 0  0.93 0 0  0.96 0 0  0.99 0 0  1.02 0 0  1.05 0 0  1.08 0 0  1.11 0 0  1.14 0 0  1.17 0 0  1.2 0 0  1.23 0 0  1.26 0 0  1.29 0 0  1.32 0 0  1.35 0 0  1.38 0 0  1.41 0 0  1.44 0 0  1.47 0 0  1.5 0 0  0 0.02 0  0.03 0.02 0  0.06 0.02 0  0.09 0.02 0  0.12 0.02 0  0.15 0.02 0  0.18 0.02 0  0.21 0.02 0  0.24 0.02 0  0.27 0.02 0  0.3 0.02 0  0.33 0.02 0  0.36 0.02 0  0.39 0.02 0  0.42 0.02 0  0.45 0.02 0  0.48 0.02 0  0.51 0.02 0  0.54 0.02 0  0.57 0.02 0  0.6 0.02 0  0.63 0.02 0  0.66 0.02 0  0.6899999999999999 0.02 0  0.72 0.02 0  0.75 0.02 0  0.78 0.02 0  0.8100000000000001 0.02 0  0.84 0.02 0  0.87 0.02 0  0.9 0.02 0  0.93 0.02 0  0.96 0.02 0  0.99 0.02 0  1.02 0.02 0  1.05 0.02 0  1.08 0.02 0  1.11 0.02 0  1.14 0.02 0  1.17 0.02 0  1.2 0.02 0  1.23 0.02 0  1.26 0.02 0  1.29 0.02 0  1.32 0.02 0  1.35 0.02 0  1.38 0.02 0  1.41 0.02 0  1.44 0.02 0  1.47 0.02 0  1.5 0.02 0  0 0.04 0  0.03 0.04 0  0.06 0.04 0  0.09 0.04 0  0.12 0.04 0  0.15 0.04 0  0.18 0.04 0  0.21 0.04 0  0.24 0.04 0  0.27 0.04 0  0.3 0.04 0  0.33 0.04 0  0.36 0.04 0  0.39 0.04 0  0.42 0.04 0  0.45 0.04 0  0.48 0.04 0  0.51 0.04 0  0.54 0.04 0  0.57 0.04 0  0.6 0.04 0  0.63 0.04 0  0.66 0.04 0  0.6899999999999999 0.04 0  0.72 0.04 0  0.75 0.04 0  0.78 0.04 0  0.8100000000000001 0.04 0  0.84 0.04 0  0.87 0.04 0  0.9 0.04 0  0.93 0.04 0  0.96 0.04 0  0.99 0.04 0  1.02 0.04 0  1.05 0.04 0  1.08 0.04 0  1.11 0.04 0  1.14 0.04 0  1.17 0.04 0  1.2 0.04 0  1.23 0.04 0  1.26 0.04 0  1.29 0.04 0  1.32 0.04 0  1.35 0.04 0  1.38 0.04 0  1.41 0.04 0  1.44 0.04 0  1.47 0.04 0  1.5 0.04 0  0 0.06 0  0.03 0.06 0  0.06 0.06 0  0.09 0.06 0  0.12 0.06 0  0.15 0.06 0  0.18 0.06 0  0.21 0.06 0  0.24 0.06 0  0.27 0.06 0  0.3 0.06 0  0.33 0.06 0  0.36 0.06 0  0.39 0.06 0  0.42 0.06 0  0.45 0.06 0  0.48 0.06 0  0.51 0.06 0  0.54 0.06 0  0.57 0.06 0  0.6 0.06 0  0.63 0.06 0  0.66 0.06 0  0.6899999999999999 0.06 0  0.72 0.06 0  0.75 0.06 0  0.78 0.06 0  0.8100000000000001 0.06 0  0.84 0.06 0  0.87 0.06 0  0.9 0.06 0  0.93 0.06 0  0.96 0.06 0  0.99 0.06 0  1.02 0.06 0  1.05 0.06 0  1.08 0.06 0  1.11 0.06 0  1.14 0.06 0  1.17 0.06 0  1.2 0.06 0  1.23 0.06 0  1.26 0.06 0  1.29 0.06 0  1.32 0.06 0  1.35 0.06 0  1.38 0.06 0  1.41 0.06 0  1.44 0.06 0  1.47 0.06 0  1.5 0.06 0  0 0.08 0  0.03 0.08 0  0.06 0.08 0  0.09 0.08 0  0.12 0.08 0  0.15 0.08 0  0.18 0.08 0  0.21 0.08 0  0.24 0.08 0  0.27 0.08 0  0.3 0.08 0  0.33 0.08 0  0.36 0.08 0  0.39 0.08 0  0.42 0.08 0  0.45 0.08 0  0.48 0.08 0  0.51 0.08 0  0.54 0.08 0  0.57 0.08 0  0.6 0.08 0  0.63 0.08 0  0.66 0.08 0  0.6899999999999999 0.08 0  0.72 0.08 0  0.75 0.08 0  0.78 0.08 0  0.8100000000000001 0.08 0  0.84 0.08 0  0.87 0.08 0  0.9 0.08 0  0.93 0.08 0  0.96 0.08 0  0.99 0.08 0  1.02 0.08 0  1.05 0.08 0  1.08 0.08 0  1.11 0.08 0  1.14 0.08 0  1.17 0.08 0  1.2 0.08 0  1.23 0.08 0  1.26 0.08 0  1.29 0.08 0  1.32 0.08 0  1.35 0.08 0  1.38 0.08 0  1.41 0.08 0  1.44 0.08 0  1.47 0.08 0  1.5 0.08 0  0 0.1 0  0.03 0.1 0  0.06 0.1 0  0.09 0.1 0  0.12 0.1 0  0.15 0.1 0  0.18 0.1 0  0.21 0.1 0  0.24 0.1 0  0.27 0.1 0  0.3 0.1 0  0.33 0.1 0  0.36 0.1 0  0.39 0.1 0  0.42 0.1 0  0.45 0.1 0  0.48 0.1 0  0.51 0.1 0  0.54 0.1 0  0.57 0.1 0  0.6 0.1 0  0.63 0.1 0  0.66 0.1 0  0.6899999999999999 0.1 0  0.72 0.1 0  0.75 0.1 0  0.78 0.1 0  0.8100000000000001 0.1 0  0.84 0.1 0  0.87 0.1 0  0.9 0.1 0  0.93 0.1 0  0.96 0.1 0  0.99 0.1 0  1.02 0.1 0  1.05 0.1 0  1.08 0.1 0  1.11 0.1 0  1.14 0.1 0  1.17 0.1 0  1.2 0.1 0  1.23 0.1 0  1.26 0.1 0  1.29 0.1 0  1.32 0.1 0  1.35 0.1 0  1.38 0.1 0  1.41 0.1 0  1.44 0.1 0  1.47 0.1 0  1.5 0.1 0  0 0.12 0  0.03 0.12 0  0.06 0.12 0  0.09 0.12 0  0.12 0.12 0  0.15 0.12 0  0.18 0.12 0  0.21 0.12 0  0.24 0.12 0  0.27 0.12 0  0.3 0.12 0  0.33 0.12 0  0.36 0.12 0  0.39 0.12 0  0.42 0.12 0  0.45 0.12 0  0.48 0.12 0  0.51 0.12 0  0.54 0.12 0  0.57 0.12 0  0.6 0.12 0  0.63 0.12 0  0.66 0.12 0  0.6899999999999999 0.12 0  0.72 0.12 0  0.75 0.12 0  0.78 0.12 0  0.8100000000000001 0.12 0  0.84 0.12 0  0.87 0.12 0  0.9 0.12 0  0.93 0.12 0  0.96 0.12 0  0.99 0.12 0  1.02 0.12 0  1.05 0.12 0  1.08 0.12 0  1.11 0.12 0  1.14 0.12 0  1.17 0.12 0  1.2 0.12 0  1.23 0.12 0  1.26 0.12 0  1.29 0.12 0  1.32 0.12 0  1.35 0.12 0  1.38 0.12 0  1.41 0.12 0  1.44 0.12 0  1.47 0.12 0  1.5 0.12 0  0 0.14 0  0.03 0.14 0  0.06 0.14 0  0.09 0.14 0  0.12 0.14 0  0.15 0.14 0  0.18 0.14 0  0.21 0.14 0  0.24 0.14 0  0.27 0.14 0  0.3 0.14 0  0.33 0.14 0  0.36 0.14 0  0.39 0.14 0  0.42 0.14 0  0.45 0.14 0  0.48 0.14 0  0.51 0.14 0  0.54 0.14 0  0.57 0.14 0  0.6 0.14 0  0.63 0.14 0  0.66 0.14 0  0.6899999999999999 0.14 0  0.72 0.14 0  0.75 0.14 0  0.78 0.14 0  0.8100000000000001 0.14 0  0.84 0.14 0  0.87 0.14 0  0.9 0.14 0  0.93 0.14 0  0.96 0.14 0  0.99 0.14 0  1.02 0.14 0  1.05 0.14 0  1.08 0.14 0  1.11 0.14 0  1.14 0.14 0  1.17 0.14 0  1.2 0.14 0  1.23 0.14 0  1.26 0.14 0  1.29 0.14 0  1.32 0.14 0  1.35 0.14 0  1.38 0.14 0  1.41 0.14 0  1.44 0.14 0  1.47 0.14 0  1.5 0.14 0  0 0.16 0  0.03 0.16 0  0.06 0.16 0  0.09 0.16 0  0.12 0.16 0  0.15 0.16 0  0.18 0.16 0  0.21 0.16 0  0.24 0.16 0  0.27 0.16 0  0.3 0.16 0  0.33 0.16 0  0.36 0.16 0  0.39 0.16 0  0.42 0.16 0  0.45 0.16 0  0.48 0.16 0  0.51 0.16 0  0.54 0.16 0  0.57 0.16 0  0.6 0.16 0  0.63 0.16 0  0.66 0.16 0  0.6899999999999999 0.16 0  0.72 0.16 0  0.75 0.16 0  0.78 0.16 0  0.8100000000000001 0.16 0  0.84 0.16 0  0.87 0.16 0  0.9 0.16 0  0.93 0.16 0  0.96 0.16 0  0.99 0.16 0  1.02 0.16 0  1.05 0.16 0  1.08 0.16 0  1.11 0.16 0  1.14 0.16 0  1.17 0.16 0  1.2 0.16 0  1.23 0.16 0  1.26 0.16 0  1.29 0.16 0  1.32 0.16 0  1.35 0.16 0  1.38 0.16 0  1.41 0.16 0  1.44 0.16 0  1.47 0.16 0  1.5 0.16 0  0 0.18 0  0.03 0.18 0  0.06 0.18 0  0.09 0.18 0  0.12 0.18 0  0.15 0.18 0  0.18 0.18 0  0.21 0.18 0  0.24 0.18 0  0.27 0.18 0  0.3 0.18 0  0.33 0.18 0  0.36 0.18 0  0.39 0.18 0  0.42 0.18 0  0.45 0.18 0  0.48 0.18 0  0.51 0.18 0  0.54 0.18 0  0.57 0.18 0  0.6 0.18 0  0.63 0.18 0  0.66 0.18 0  0.6899999999999999 0.18 0  0.72 0.18 0  0.75 0.18 0  0.78 0.18 0  0.8100000000000001 0.18 0  0.84 0.18 0  0.87 0.18 0  0.9 0.18 0  0.93 0.18 0  0.96 0.18 0  0.99 0.18 0  1.02 0.18 0  1.05 0.18 0  1.08 0.18 0  1.11 0.18 0  1.14 0.18 0  1.17 0.18 0  1.2 0.18 0  1.23 0.18 0  1.26 0.18 0  1.29 0.18 0  1.32 0.18 0  1.35 0.18 0  1.38 0.18 0  1.41 0.18 0  1.44 0.18 0  1.47 0.18 0  1.5 0.18 0  0 0.2 0  0.03 0.2 0  0.06 0.2 0  0.09 0.2 0  0.12 0.2 0  0.15 0.2 0  0.18 0.2 0  0.21 0.2 0  0.24 0.2 0  0.27 0.2 0  0.3 0.2 0  0.33 0.2 0  0.36 0.2 0  0.39 0.2 0  0.42 0.2 0  0.45 0.2 0  0.48 0.2 0  0.51 0.2 0  0.54 0.2 0  0.57 0.2 0  0.6 0.2 0  0.63 0.2 0  0.66 0.2 0  0.6899999999999999 0.2 0  0.72 0.2 0  0.75 0.2 0  0.78 0.2 0  0.8100000000000001 0.2 0  0.84 0.2 0  0.87 0.2 0  0.9 0.2 0  0.93 0.2 0  0.96 0.2 0  0.99 0.2 0  1.02 0.2 0  1.05 0.2 0  1.08 0.2 0  1.11 0.2 0  1.14 0.2 0  1.17 0.2 0  1.2 0.2 0  1.23 0.2 0  1.26 0.2 0  1.29 0.2 0  1.32 0.2 0  1.35 0.2 0  1.38 0.2 0  1.41 0.2 0  1.44 0.2 0  1.47 0.2 0  1.5 0.2 0  0 0.22 0  0.03 0.22 0  0.06 0.22 0  0.09 0.22 0  0.12 0.22 0  0.15 0.22 0  0.18 0.22 0  0.21 0.22 0  0.24 0.22 0  0.27 0.22 0  0.3 0.22 0  0.33 0.22 0  0.36 0.22 0  0.39 0.22 0  0.42 0.22 0  0.45 0.22 0  0.48 0.22 0  0.51 0.22 0  0.54 0.22 0  0.57 0.22 0  0.6 0.22 0  0.63 0.22 0  0.66 0.22 0  0.6899999999999999 0.22 0  0.72 0.22 0  0.75 0.22 0  0.78 0.22 0  0.8100000000000001 0.22 0  0.84 0.22 0  0.87 0.22 0  0.9 0.22 0  0.93 0.22 0  0.96 0.22 0  0.99 0.22 0  1.02 0.22 0  1.05 0.22 0  1.08 0.22 0  1.11 0.22 0  1.14 0.22 0  1.17 0.22 0  1.2 0.22 0  1.23 0.22 0  1.26 0.22 0  1.29 0.22 0  1.32 0.22 0  1.35 0.22 0  1.38 0.22 0  1.41 0.22 0  1.44 0.22 0  1.47 0.22 0  1.5 0.22 0  0 0.24 0  0.03 0.24 0  0.06 0.24 0  0.09 0.24 0  0.12 0.24 0  0.15 0.24 0  0.18 0.24 0  0.21 0.24 0  0.24 0.24 0  0.27 0.24 0  0.3 0.24 0  0.33 0.24 0  0.36 0.24 0  0.39 0.24 0  0.42 0.24 0  0.45 0.24 0  0.48 0.24 0  0.51 0.24 0  0.54 0.24 0  0.57 0.24 0  0.6 0.24 0  0.63 0.24 0  0.66 0.24 0  0.6899999999999999 0.24 0  0.72 0.24 0  0.75 0.24 0  0.78 0.24 0  0.8100000000000001 0.24 0  0.84 0.24 0  0.87 0.24 0  0.9 0.24 0  0.93 0.24 0  0.96 0.24 0  0.99 0.24 0  1.02 0.24 0  1.05 0.24 0  1.08 0.24 0  1.11 0.24 0  1.14 0.24 0  1.17 0.24 0  1.2 0.24 0  1.23 0.24 0  1.26 0.24 0  1.29 0.24 0  1.32 0.24 0  1.35 0.24 0  1.38 0.24 0  1.41 0.24 0  1.44 0.24 0  1.47 0.24 0  1.5 0.24 0  0 0.26 0  0.03 0.26 0  0.06 0.26 0  0.09 0.26 0  0.12 0.26 0  0.15 0.26 0  0.18 0.26 0  0.21 0.26 0  0.24 0.26 0  0.27 0.26 0  0.3 0.26 0  0.33 0.26 0  0.36 0.26 0  0.39 0.26 0  0.42 0.26 0  0.45 0.26 0  0.48 0.26 0  0.51 0.26 0  0.54 0.26 0  0.57 0.26 0  0.6 0.26 0  0.63 0.26 0  0.66 0.26 0  0.6899999999999999 0.26 0  0.72 0.26 0  0.75 0.26 0  0.78 0.26 0  0.8100000000000001 0.26 0  0.84 0.26 0  0.87 0.26 0  0.9 0.26 0  0.93 0.26 0  0.96 0.26 0  0.99 0.26 0  1.02 0.26 0  1.05 0.26 0  1.08 0.26 0  1.11 0.26 0  1.14 0.26 0  1.17 0.26 0  1.2 0.26 0  1.23 0.26 0  1.26 0.26 0  1.29 0.26 0  1.32 0.26 0  1.35 0.26 0  1.38 0.26 0  1.41 0.26 0  1.44 0.26 0  1.47 0.26 0  1.5 0.26 0  0 0.28 0  0.03 0.28 0  0.06 0.28 0  0.09 0.28 0  0.12 0.28 0  0.15 0.28 0  0.18 0.28 0  0.21 0.28 0  0.24 0.28 0  0.27 0.28 0  0.3 0.28 0  0.33 0.28 0  0.36 0.28 0  0.39 0.28 0  0.42 0.28 0  0.45 0.28 0  0.48 0.28 0  0.51 0.28 0  0.54 0.28 0  0.57 0.28 0  0.6 0.28 0  0.63 0.28 0  0.66 0.28 0  0.6899999999999999 0.28 0  0.72 0.28 0  0.75 0.28 0  0.78 0.28 0  0.8100000000000001 0.28 0  0.84 0.28 0  0.87 0.28 0  0.9 0.28 0  0.93 0.28 0  0.96 0.28 0  0.99 0.28 0  1.02 0.28
[...]
<PointData  Scalars="sensitivity"> 
<DataArray  type="Float64"  Name="sensitivity"  format="ascii">-1.3036460552748234e-06  -1.8486201176048299e-05  -7.6989337455462951e-05  -1.9587609097334701e-04  -3.7550958501981964e-04  -5.9331552772680829e-04  -8.1719442470162460e-04  -1.0198175685640282e-03  -1.1850489197001142e-03  -1.3074510776463050e-03  -1.3885387333036779e-03  -1.4333242009801253e-03  -1.4483203224795245e-03  -1.4404528744533240e-03  -1.4163371840965392e-03  -1.3818115321787775e-03  -1.3417284000312830e-03  -1.2999325902760283e-03  -1.2593337446269843e-03  -1.2220212659614948e-03  -1.1894057736574529e-03  -1.1623772472080082e-03  -1.1414610888109472e-03  -1.1269500078498864e-03  -1.1189980469344179e-03  -1.1176763521768167e-03  -1.1229990427988163e-03  -1.1349274902285988e-03  -1.1533544268718787e-03  -1.1780612250589157e-03  -1.2086386900698478e-03  -1.2443675653854209e-03  -1.2840677528802437e-03  -1.3259360030677041e-03  -1.3673933252734930e-03  -1.4049576268685996e-03  -1.4341621270358060e-03  -1.4495605213581131e-03  -1.4448798674078546e-03  -1.4133708920343086e-03  -1.3483063101112089e-03  -1.2438035531853052e-03  -1.0965056385684115e-03  -9.0853252396271532e-04  -6.9137986610298327e-04  -4.6755211718252506e-04  -2.6761400809794582e-04  -1.2076387809434865e-04  -3.8149127819611249e-05  -5.4718247709384970e-06  -5.2673552212555065e-08  -9.3741909570247038e-06  -7.5504884447921640e-05  -3.0065121207476490e-04  -7.8986962626345538e-04  -1.5624790049580020e-03  -2.5315657509973727e-03  -3.5552221992171070e-03  -4.5026295168919973e-03  -5.2903040259752810e-03  -5.8853864211484454e-03  -6.2898676915585988e-03  -6.5239157408354285e-03  -6.6159419001075347e-03  -6.5972717611056083e-03  -6.4985389328779926e-03  -6.3472182797699121e-03  -6.1664154615034480e-03  -5.9746279324776243e-03  -5.7860064879511619e-03  -5.6108323265960961e-03  -5.4561282521854637e-03  -5.3263710172398292e-03  -5.2242244965940883e-03  -5.1511823985087796e-03  -5.1080405450217347e-03  -5.0951847774972870e-03  -5.1127315274236739e-03  -5.1605665219527615e-03  -5.2382976134179920e-03  -5.3450957017365484e-03  -5.4793746158006860e-03  -5.6382799498954509e-03  -5.8170154321856371e-03  -6.0080982694698769e-03  -6.2006506399016953e-03  -6.3797934643082506e-03  -6.5262167692869853e-03  -6.6160798253818067e-03  -6.6216061941345560e-03  -6.5124991696270612e-03  -6.2580397993986011e-03  -5.8301148027888276e-03  -5.2097728831487153e-03  -4.3983924871071525e-03  -3.4357875903059179e-03  -2.4121439250668801e-03  -1.4582241300136339e-03  -7.1393442130603232e-04  -2.6074248956900361e-04  -6.2251443680867068e-05  -3.5992618625040591e-06  -2.7039340875466878e-05  -1.4684061658307195e-04  -4.3682678711099034e-04  -1.0516004588584061e-03  -1.9930808919560142e-03  -3.1417900441751954e-03  -4.3328523191909375e-03  -5.4195409803127897e-03  -6.3120078073671025e-03  -6.9796855483807750e-03  -7.4286909273993430e-03  -7.6824570550072411e-03  -7.7730882578672536e-03  -7.7366514318153168e-03  -7.6087899881561840e-03  -7.4214388996636793e-03  -7.2013649493300538e-03  -6.9699898767384989e-03  -6.7437168047713280e-03  -6.5344240022673803e-03  -6.3501237905246874e-03  -6.1958026474192617e-03  -6.0743325426516840e-03  -5.9872748352558253e-03  -5.9354508822316429e-03  -5.9192651236577793e-03  -5.9388478221800078e-03  -5.9940946090292655e-03  -6.0846304036767801e-03  -6.2096558210888763e-03  -6.3675925012589970e-03  -6.5554690862182647e-03  -6.7680830160139604e-03  -6.9970898922826087e-03  -7.2301749285859692e-03  -7.4503700472603089e-03  -7.6355630218101116e-03  -7.7583108754713040e-03  -7.7865878741697177e-03  -7.6853591993766672e-03  -7.4198694963156621e-03  -6.9575919014998175e-03  -6.2746188339061620e-03  -5.3648255510735342e-03  -4.2642114457677686e-03  -3.0718330729283152e-03  -1.9278519160907833e-03  -9.9329009647191810e-04  -3.9758993548199537e-04  -1.3055462971285666e-04  -1.6349117957592348e-05  -4.4239504903792760e-05  -2.4895819495430457e-04  -6.5015119405356116e-04  -1.4060054102368793e-03  -2.4498410560547211e-03  -3.6387187121850809e-03  -4.8252521489799615e-03  -5.8720149400808856e-03  -6.7051612355647104e-03  -7.3137382247366904e-03  -7.7116923392604548e-03  -7.9212191123721673e-03  -7.9723717257271232e-03  -7.9009232969734396e-03  -7.7427971046564216e-03  -7.5297941381489240e-03  -7.2882515554833381e-03  -7.0392221651149238e-03  -6.7988590455857010e-03  -6.5787533976052115e-03  -6.3864736473916448e-03  -6.2264425015154173e-03  -6.1009884561464452e-03  -6.0112717652483529e-03  -5.9578876791039964e-03  -5.9411461713405845e-03  -5.9611551922653687e-03  -6.0178390958802487e-03  -6.1109379300274391e-03  -6.2399184692200904e-03  -6.4036528366524376e-03  -6.5997510023511992e-03  -6.8235858898924289e-03  -7.0672639135436494e-03  -7.3187806804456664e-03  -7.5614735602454030e-03  -7.7735470331256181e-03  -7.9276573791891153e-03  -7.9915379021961476e-03  -7.9302658061232729e-03  -7.7125221280179481e-03  -7.3061036922376218e-03  -6.6846180646810364e-03  -5.8330371876172890e-03  -4.7651955081402164e-03  -3.5762589636157372e-03  -2.3873167528678432e-03  -1.3309469924511490e-03  -5.7854576425497818e-04  -2.1180737637100047e-04  -3.4259267258895277e-05  -4.1146872104999919e-05  -3.7449554147501112e-04  -1.0705171112789253e-03  -2.1161323201620602e-03  -3.2637282230096394e-03  -4.4320342215873445e-03  -5.5604413816366539e-03  -6.5000457411947604e-03  -7.2100495335112730e-03  -7.7142519000963916e-03  -8.0298655556980021e-03  -8.1704080489006792e-03  -8.1609806758408572e-03  -8.0373294196306368e-03  -7.8358285975959705e-03  -7.5874513355699506e-03  -7.3172503404223700e-03  -7.0453691987514364e-03  -6.7874359140308177e-03  -6.5545107945295233e-03  -6.3533640720973197e-03  -6.1874244972695029e-03  -6.0580975001386676e-03  -5.9659038656981718e-03  -5.9111154304639663e-03  -5.8939299648904661e-03  -5.9144313249681092e-03  -5.9725642055010178e-03  -6.0682014094966480e-03  -6.2011880925604010e-03  -6.3711072659516253e-03  -6.5765392330026737e-03  -6.8138399919196076e-03  -7.0758597837064941e-03  -7.3511664891471535e-03  -7.6238095171075170e-03  -7.8726451004982011e-03  -8.0709857975977146e-03  -8.1865148239035641e-03  -8.1858931498445444e-03  -8.0400363581368210e-03  -7.7207130714141209e-03  -7.2055374046902593e-03  -6.4901423639898087e-03  -5.5144420938699644e-03  -4.3863426146991992e-03  -3.2391979431207795e-03  -2.0502542634766633e-03  -9.5921918970576930e-04  -2.8012471884638804e-04  -4.0932189965751456e-05  -4.5272451825076156e-05  -7.0875687593904401e-04  -2.6697276944268817e-03  -5.0119100389432901e-03  -5.9991244940285227e-03  -6.3991781877968225e-03  -6.9041549446816931e-03  -7.4325656583284321e-03  -7.8876132657316692e-03  -8.2345858168568035e-03  -8.4431775989341103e-03  -8.4935451866076719e-03  -8.4024566459766931e-03  -8.2085223055856603e-03  -7.9497335589452829e-03  -7.6552002859348565e-03  -7.3476137084062636e-03  -7.0458571814902239e-03  -6.7650915557523816e-03  -6.5158356897859863e-03  -6.3037432266299367e-03  -6.1307304967308544e-03  -5.9968198153645480e-03  -5.9016509612755067e-03  -5.8451323924590837e-03  -5.8273944531820818e-03  -5.8485178483450940e-03  -5.9084272183349534e-03  -6.0070814641630726e-03  -6.1447714513728968e-03  -6.3220782705271051e-03  -6.5390428543094514e-03  -6.7935064950848606e-03  -7.0792788389762622e-03  -7.3856312658304463e-03  -7.6972168300586804e-03  -7.9940998167705741e-03  -8.2522776242974927e-03  -8.4372763763113003e-03  -8.5152192781691449e-03  -8.4508458484572127e-03  -8.2860037916033195e-03  -7.9712019569914989e-03  -7.6427782364729422e-03  -7.2088943777267331e-03  -6.8572632026049785e-03  -6.3444428474904706e-03  -4.3705719400681286e-03  -1.8906945160645425e-03  -3.8648566976045185e-04  -2.7473699046783820e-05  -5.9556931106232315e-04  -3.0373528131781495e-03  -1.0716513101337723e-02  -1.9676881276832082e-02  -2.2406827008915661e-02  -1.8563271462597890e-02  -1.3463454224311498e-02  -1.0051673651962771e-02  -8.9581754894051679e-03  -8.9084910820329787e-03  -8.9617889440741488e-03  -8.8975675022951155e-03  -8.6995599859774828e-03  -8.4151829263457191e-03  -8.0854699318360455e-03  -7.7345443626941459e-03  -7.3809218387362084e-03  -7.0420435582357263e-03  -6.7330703651671559e-03  -6.4642145222171266e-03  -6.2396015541094259e-03  -6.0588483902127861e-03  -5.9199430937987730e-03  -5.8213892821638354e-03  -5.7627949338008959e-03  -5.7443754345793165e-03  -5.7662674020341293e-03  -5.8282791353244422e-03  -5.9302917592883950e-03  -6.0730187664403586e-03  -6.2583777994612427e-03  -6.4885844030290749e-03  -6.7637574311621776e-03  -7.0788009456303246e-03  -7.4234259793113629e-03  -7.7825231486675327e-03  -8.1404750144681345e-03  -8.4747437141021679e-03  -8.7443089814192645e-03  -8.9266297474865763e-03  -8.9890429308540198e-03  -9.1660812491144907e-03  -9.4990573974153142e-03  -1.1080321118961152e-02  -1.3803412408137143e-02  -1.7910067032241236e-02  -2.2262230656166702e-02  -2.0274573830593948e-02  -1.1913564021312861e-02  -2.5280853942765886e-03  -9.3248888039027715e-05  -1.8128979779699335e-03  -1.8759680834037583e-02  -3.1509053926499359e-02  -3.1505805906081347e-02  -3.1486924696953342e-02  -3.1487428406237701e-02  -3.1470801074124637e-02  -2.4996354286766276e-02  -1.4400900522056382e-02  -1.0408159412681620e-02  -9.6741771295845921e-03  -9.4009684884182026e-03  -9.0509804274380070e-03  -8.6522803858453245e-03  -8.2396809868035721e-03  -7.8233909696276294e-03  -7.4151746754861775e-03  -7.0314749397724892e-03  -6.6886876271740276e-03  -6.3974253581414462e-03  -6.1596395586039866e-03  -5.9713313668637242e-03  -5.8274827125256393e-03  -5.7252273515033918e-03  -5.6641462711907852e-03  -5.6448814463998407e-03  -5.6677499286910448e-03  -5.7322542645103442e-03  -5.8378168187668989e-03  -5.9853678192886587e-03  -6.1785526323485836e-03  -6.4228134622445025e-03  -6.7219193170968651e-03  -7.0719910856305622e-03  -7.4621324445087673e-03  -7.8782485037081074e-03  -8.3091704259743125e-03  -8.7284195372613130e-03  -9.1322999941771676e-03  -9.4924781787776042e-03  -9.8747450198626314e-03  -1.1581190352399830e-02  -1.5033869513785804e-02  -2.3249382884187979e-02  -3.1601744189286629e-02  -3.1526939673217132e-02  -3.1472865450012176e-02  -3.1477756757583158e-02  -3.1472914065412930e-02  -1.9158263463861146e-02  -1.7577757704542903e-03  -9.4209348639054148e-03  -3.1526997917655876e-02  -3.1519805530993789e-02  -3.1515730715930668e-02  -3.1509575439470659e-02  -3.1509989885977911e-02  -3.1524564674363660e-02  -3.1414987607111151e-02  -3.1429162426128955e-02  -1.9251787979153435e-02  -1.2032064613089951e-02  -1.0162974236106645e-02  -9.4669106341864605e-03  -8.9121058157535359e-03  -8.4092519330641845e-03  -7.9200197763674377e-03  -7.4484234593179925e-03  -7.0110539416751117e-03  -6.6281054890052378e-03  -6.3123054988976496e-03  -6.0621856716217204e-03  -5.8677809399919007e-03  -5.7195880094057239e-03  -5.6132683251906377e-03  -5.5490672194660985e-03  -5.5287018423453051e-03  -5.5528992552372741e-03  -5.6205286365117188e-03  -5.7297879576829669e-03  -5.8812680766584160e-03  -6.0806713312324097e-03  -6.3382982424854363e-03  -6.6642830766530537e-03  -7.0568329001614374e-03  -7.4994071658372619e-03  -7.9826374259332217e-03  -8.4883082148363657e-03  -9.0393269724650428e-03  -9.6984813353553773e-03  -1.0608344232356756e-02  -1.2943172657262891e-02  -1.9212227084468937e-02  -3.1076602345728357e-02  -3.1455843892196030e-02  -3.1563430046097810e-02  -3.1533821515146235e-02  -3.1510261519566429e-02  -3.1507382271463179e-02  -3.1510979405528237e-02  -3.1513584882555630e-02  -7.1389292119047989e-03  -1.5754876668730624e-02  -3.1531594924048612e-02  -3.1528951541944746e-02  -3.1523644392219580e-02  -3.1522792882619624e-02  -3.1522233456901000e-02  -3.1521238568399626e-02  -3.1503477556152758e-02  -3.1517114119562734e-02  -3.1587831389232414e-02  -2.4627609334940060e-02  -1.3774965723895499e-02  -1.0200398079465567e-02  -9.2227494662881909e-03  -8.6000736680774629e-03  -8.0250417024687777e-03  -7.4800022306884591e-03  -6.9774391280630205e-03  -6.5459690554126671e-03  -6.2046267409238791e-03  -5.9455188431641534e-03  -5.7483726486353805e-03  -5.5969934404173794e-03  -5.4858626614160853e-03  -5.4173838376435990e-03  -5.3954707515529382e-03  -5.4216350397431785e-03  -5.4936373286551717e-03  -5.6069968470332876e-03  -5.7607286761761252e-03  -5.9626496813953008e-03  -6.2307991593225677e-03  -6.5857082540964193e-03  -7.0323752544643372e-03  -7.5313954603949034e-03  -8.1041772406782280e-03  -8.7001538926409216e-03  -9.5339092681994211e-03  -1.1191837261496671e-02  -1.4522196251525392e-02  -2.3069918808194183e-02  -3.1526363380823749e-02  -3.1514199415874897e-02  -3.1480078560558400e-02  -3.1524842326780697e-02  -3.1533299868556526e-02  -3.1525283150645581e-02  -3.1523492228445006e-02  -3.1533470967193063e-02  -3.1539212850981574e-02  -1.5766744057638716e-02  -1.8324247672852397e-02  -3.1531217130647618e-02  -3.1518320384433224e-02  -3.1523131749454772e-02  -3.1523677941480158e-02  -3.1524987636980466e-02  -3.1526061209819795e-02  -3.1521165497575866e-02  -3.1517147226784559e-02  -3.1565301925287149e-02  -3.1550342140180598e-02  -3.0447007321196738e-02  -1.5589451724507972e-02  -1.0293210837753471e-02  -8.9277050529116241e-03  -8.1575962782301521e-03  -7.5179059022375191e-03  -6.9294787592193725e-03  -6.4351795716802917e-03  -6.0694904445535783e-03  -5.8088060725952143e-03  -5.6149057607941680e-03  -5.4618290025990369e-03  -5.3440123756099047e-03  -5.2690884170932348e-03  -5.2449316417161234e-03  -5.2741246474262236e-03  -5.3530409653647750e-03  -5.4717564368619159e-03  -5.6253713730665409e-03  -5.8234256900827680e-03  -6.0960158466850916e-03  -6.4783197231048327e-03  -7.0094984190949890e-03  -7.5810933122537729e-03  -8.3043027413075843e-03  -9.1873802696291890e-03  -1.1648631246210569e-02  -1.6326534728521261e-02  -2.7529038080047356e-02  -3.1637584994491458e-02  -3.1562905971846848e-02  -3.1523291847404704e-02  -3.1522643412454032e-02  -3.1524231860244549e-02  -3.1527176624228832e-02  -3.1523699746207508e-02  -3.1521106394332865e-02  -3.1525654809584795e-02  -3.1814014886155116e-02  -1.6627496392384807e-02  -2.8533076761386250e-02  -4.6137293784890489e-02  -3.5623340420992827e-02  -3.1521437940309559e-02  -3.1518291371704796e-02  -3.1521276469481010e-02  -3.1524249459281443e-02  -3.1527639814916061e-02  -3.1527228332991167e-02  -3.1522022154752104e-02  -3.1522455236285871e-02  -3.1437785828936124e-02  -3.1534071073845697e-02  -1.9107588643424590e-02  -1.1368799520938066e-02  -8.7012415168425290e-03  -7.6898128559586372e-03  -6.9108842213958009e-03  -6.3079681987199543e-03  -5.9164173360431501e-03  -5.6627821202179943e-03  -5.4792220414849003e-03  -5.3244790960344096e-03  -5.1949313619801670e-03  -5.1095664934146905e-03  -5.0821182032245735e-03  -5.1157132367812734e-03  -5.2075292418613615e-03  -5.3363913809666708e-03  -5.4901932818467664e-03  -5.6793475570465395e-03  -5.9521963926437854e-03  -6.3689156146552192e-03  -7.0750572457180042e-03  -7.8616089185247866e-03  -9.4200897354190759e-03  -1.2441740554383181e-02  -1.8977186767459825e-02  -3.1244216662412221e-02  -3.1415236832893365e-02  -3.1523881260928005e-02  -3.1545504452210299e-02  -3.1532209825560646e-02  -3.1524864397227959e-02  -3.1523485359181452e-02  -3.1520514811684469e-02  -3.1518273597032763e-02  -3.1521189764972375e-02  -3.7739309306639601e-02  -4.7931076020338324e-02  -2.5075235956144731e-02  -3.5080418079129705e-02  -6.0547103788918789e-02  -4.6020143758791279e-02  -3.5288738679858711e-02  -3.1518834107395942e-02  -3.1517020842419363e-02  -3.1519224424762148e-02  -3.1523832339925527e-02  -3.1529680048143237e-02  -3.1530217808795523e-02  -3.1518094678310030e-02  -3.1501382455582400e-02  -3.1519775976258879e-02  -3.1547126136880765e-02  -2.6594345316247582e-02  -1.5725793731242357e-02  -1.0369240149897544e-02  -7.8647707928286448e-03  -6.6710387201058506e-03  -6.0651525554124685e-03  -5.7237807751117998e-03  -5.5007774319453823e-03  -5.3131564958733548e-03  -5.1498927896925098e-03  -5.0442678297561282e-03  -5.0121006528599634e-03  -5.0542514506101864e-03  -5.1767103318733744e-03  -5.3434823642632169e-03  -5.5420507767074568e-03  -5.7986437641601093e-03  -6.2138082590069482e-03  -6.9535143610891855e-03  -8.6975394791498264e-03  -1.1299305051333501e-02  -1.5544463485677285e-02  -2.5146658358922873e-02  -3.1474238940662064e-02  -3.1533812958903874e-02  -3.1485593998343990e-02  -3.1520374254225519e-02  -3.1532263255622264e-02  -3.1528403393523551e-02  -3.1522442605128195e-02  -3.1519303845221780e-02  -3.1518353191884389e-02  -3.1521650327711412e-02  -3.6356860138620488e-02  -4.6458451003231836e-02  -6.0499660640495771e-02  -3.3666380728198934e-02  -3.4014041899071971e-02  -6.2913796786109810e-02  -5.0483800310777663e-02  -3.9847106573867322e-02  -3.2801347816148803e-02  -3.1516121346918023e-02  -3.1515809236507930e-02  -3.1518234839609784e-02  -3.1523522280343531e-02  -3.1529578858557915e-02  -3.1530853647561051e-02  -3.1520569209056770e-02  -3.1512714703101810e-02  -3.1531091733082134e-02  -3.1469410973825641e-02  -3.1487724549011227e-02  -2.8223286402746933e-02  -1.9377902034957602e-02  -1.4280919252626560e-02  -1.1651311274226766e-02  -1.0096618211884048e-02  -9.1113157518556837e-03  -8.4225650165071723e-03  -7.9560578492484432e-03  -7.7251885176076087e-03  -7.6734851582856613e-03  -7.7809889560392842e-03  -8.0986228714204495e-03  -8.5653782084069239e-03  -9.2120906302184842e-03  -1.0165098613292078e-02  -1.1692063924029484e-02  -1.4209118485261733e-02  -1.8909558664200424e-02  -2.7377690003055753e-02  -3.1520060662351357e-02  -3.1433338909491668e-02  -3.1535714072103767e-02  -3.1522618736045366e-02  -3.1530259372880377e-02  -3.1527466429090913e-02  -3.1527285444632756e-02  -3.1521922696831607e-02  -3.1519381102427746e-02  -3.1516154384952560e-02  -3.1519311123052868e-02  -3.3329469999242418e-02  -3.9793744112152460e-02  -4.9833662326329194e-02  -6.2143558370302165e-02  -3.5179895546981942e-02  -2.5773034938938150e-02  -5.2482739183851775e-02  -4.5938623009940678e-02  -3.9539956504270841e-02  -3.4224228367803373e-02  -3.1515519048840132e-02  -3.1514477989394045e-02  -3.1514740175321070e-02  -3.1517370951952207e-02  -3.1522542845525400e-02  -3.1528970275393829e-02  -3.1533310900279825e-02  -3.1526949028878898e-02  -3.1513805562819727e-02  -3.1507059506115168e-02  -3.1514567694439860e-02  -3.1483888659348425e-02  -3.1472244789611324e-02  -3.1594621251195304e-02  -3.1474599108542056e-02  -3.1616176603170287e-02  -3.1475692327240908e-02  -3.0950155350778705e-02  -2.9788378079322195e-02  -2.8993735330609352e-02  -2.8736455459063844e-02  -2.8945158141740295e-02  -2.9689382735235772e-02  -3.0846650950645697e-02  -3.1422844807722075e-02  -3.1639040148684884e-02  -3.1504634537231069e-02  -3.1595237899294616e-02  -3.1530668367420904e-02  -3.1426464239621768e-02  -3.1539506219686368e-02  -3.1505534078356767e-02  -3.1520757916101885e-02  -3.1536422724447712e-02  -3.1529876263316534e-02  -3.1526358474205693e-02  -3.1521136376792443e-02  -3.1517455774527428e-02  -3.1516985318906010e-02  -3.1512815271001991e-02  -3.1517845655585873e-02  -3.4121034251659021e-02  -3.8784804048653240e-02  -4.4794896708011102e-02  -5.1203675129702468e-02  -2.9053052902135820e-02  -1.6699402877419882e-02  -3.6185074221530299e-02  -3.5935628909477713e-02  -3.4728587743168969e-02  -3.2986580787510003e-02  -3.1519838618846788e-02  -3.1511581097834820e-02  -3.1514047092478181e-02  -3.1513955818238619e-02  -3.1516634520107473e-02  -3.1521784080824546e-02  -3.1529111428453972e-02  -3.1535407989293301e-02  -3.1533491973244926e-02  -3.1523286482943946e-02  -3.1513348710066481e-02  -3.1498416675121030e-02  -3.1489784276508163e-02  -3.1515710982695365e-02  -3.1521708549618291e-02  -3.1524855568584656e-02  -3.1544238167711007e-02  -3.1520785777822337e-02  -3.1516013156773458e-02  -3.1529154354984615e-02  -3.1534253040293371e-02  -3.1530359689825607e-02  -3.1519926058468560e-02  -3.1508466052885584e-02  -3.1510660232462559e-02  -3.1535279798619816e-02  -