<?xml version="1.0"?>
<VTKFile type="UnstructuredGrid"  version="0.1"  >
<UnstructuredGrid>
<Piece  NumberOfPoints="2601" NumberOfCells="5000">
<Points>
<DataArray  type="Float64"  NumberOfComponents="3"  format="ascii">0 0 0  0.03 0 0  0.06 0 0  0.09 0 0  0.12 0 0  0.15 0 0  0.18 0 0  0.21 0 0  0.24 0 0  0.27 0 0  0.3 0 0  0.33 0 0  0.36 0 0  0.39 0 0  0.42 0 0  0.45 0 0  0.48 0 0  0.51 0 0  0.54 0 0  0.57 0 0  0.6 0 0  0.63 0 0  0.66 0 0  0.6899999999999999 0 0  0.72 0 0  0.75 0 0  0.78 0 0  0.8100000000000001 0 0  0.84 0 0  0.87 0 0  0.9 0 0  0.93 0 0  0.96 0 0  0.99 0 0  1.02 0 0  1.05 0 0  1.08 0 0  1.11 0 0  1.14 0 0  1.17 0 0  1.2 0 0  1.23 0 0  1.26 0 0  1.29 0 0  1.32 0 0  1.35 0 0  1.38 0 0  1.41 0 0  1.44 0 0  1.47 0 0  1.5 0 0  0 0.02 0  0.03 0.02 0  0.06 0.02 0  0.09 0.02 0  0.12 0.02 0  0.15 0.02 0  0.18 0.02 0  0.21 0.02 0  0.24 0.02 0  0.27 0.02 0  0.3 0.02 0  0.33 0.02 0  0.36 0.02 0  0.39 0.02 0  0.42 0.02 0  0.45 0.02 0  0.48 0.02 0  0.51 0.02 0  0.54 0.02 0  0.57 0.02 0  0.6 0.02 0  0.63 0.02 0  0.66 0.02 0  0.6899999999999999 0.02 0  0.72 0.02 0  0.75 0.02 0  0.78 0.02 0  0.8100000000000001 0.02 0  0.84 0.02 0  0.87 0.02 0  0.9 0.02 0  0.93 0.02 0  0.96 0.02 0  0.99 0.02 0  1.02 0.02 0  1.05 0.02 0  1.08 0.02 0  1.11 0.02 0  1.14 0.02 0  1.17 0.02 0  1.2 0.02 0  1.23 0.02 0  1.26 0.02 0  1.29 0.02 0  1.32 0.02 0  1.35 0.02 0  1.38 0.02 0  1.41 0.02 0  1.44 0.02 0  1.47 0.02 0  1.5 0.02 0  0 0.04 0  0.03 0.04 0  0.06 0.04 0  0.09 0.04 0  0.12 0.04 0  0.15 0.04 0  0.18 0.04 0  0.21 0.04 0  0.24 0.04 0  0.27 0.04 0  0.3 0.04 0  0.33 0.04 0  0.36 0.04 0  0.39 0.04 0  0.42 0.04 0  0.45 0.04 0  0.48 0.04 0  0.51 0.04 0  0.54 0.04 0  0.57 0.04 0  0.6 0.04 0  0.63 0.04 0  0.66 0.04 0  0.6899999999999999 0.04 0  0.72 0.04 0  0.75 0.04 0  0.78 0.04 0  0.8100000000000001 0.04 0  0.84 0.04 0  0.87 0.04 0  0.9 0.04 0  0.93 0.04 0  0.96 0.04 0  0.99 0.04 0  1.02 0.04 0  1.05 0.04 0  1.08 0.04 0  1.11 0.04 0  1.14 0.04 0  1.17 0.04 0  1.2 0.04 0  1.23 0.04 0  1.26 0.04 0  1.29 0.04 0  1.32 0.04 0  1.35 0.04 0  1.38 0.04 0  1.41 0.04 0  1.44 0.04 0  1.47 0.04 0  1.5 0.04 0  0 0.06 0  0.03 0.06 0  0.06 0.06 0  0.09 0.06 0  0.12 0.06 0  0.15 0.06 0  0.18 0.06 0  0.21 0.06 0  0.24 0.06 0  0.27 0.06 0  0.3 0.06 0  0.33 0.06 0  0.36 0.06 0  0.39 0.06 0  0.42 0.06 0  0.45 0.06 0  0.48 0.06 0  0.51 0.06 0  0.54 0.06 0  0.57 0.06 0  0.6 0.06 0  0.63 0.06 0  0.66 0.06 0  0.6899999999999999 0.06 0  0.72 0.06 0  0.75 0.06 0  0.78 0.06 0  0.8100000000000001 0.06 0  0.84 0.06 0  0.87 0.06 0  0.9 0.06 0  0.93 0.06 0  0.96 0.06 0  0.99 0.06 0  1.02 0.06 0  1.05 0.06 0  1.08 0.06 0  1.11 0.06 0  1.14 0.06 0  1.17 0.06 0  1.2 0.06 0  1.23 0.06 0  1.26 0.06 0  1.29 0.06 0  1.32 0.06 0  1.35 0.06 0  1.38 0.06 0  1.41 0.06 0  1.44 0.06 0  1.47 0.06 0  1.5 0.06 0  0 0.08 0  0.03 0.08 0  0.06 0.08 0  0.09 0.08 0  0.12 0.08 0  0.15 0.08 0  0.18 0.08 0  0.21 0.08 0  0.24 0.08 0  0.27 0.08 0  0.3 0.08 0  0.33 0.08 0  0.36 0.08 0  0.39 0.08 0  0.42 0.08 0  0.45 0.08 0  0.48 0.08 0  0.51 0.08 0  0.54 0.08 0  0.57 0.08 0  0.6 0.08 0  0.63 0.08 0  0.66 0.08 0  0.6899999999999999 0.08 0  0.72 0.08 0  0.75 0.08 0  0.78 0.08 0  0.8100000000000001 0.08 0  0.84 0.08 0  0.87 0.08 0  0.9 0.08 0  0.93 0.08 0  0.96 0.08 0  0.99 0.08 0  1.02 0.08 0  1.05 0.08 0  1.08 0.08 0  1.11 0.08 0  1.14 0.08 0  1.17 0.08 0  1.2 0.08 0  1.23 0.08 0  1.26 0.08 0  1.29 0.08 0  1.32 0.08 0  1.35 0.08 0  1.38 0.08 0  1.41 0.08 0  1.44 0.08 0  1.47 0.08 0  1.5 0.08 0  0 0.1 0  0.03 0.1 0  0.06 0.1 0  0.09 0.1 0  0.12 0.1 0  0.15 0.1 0  0.18 0.1 0  0.21 0.1 0  0.24 0.1 0  0.27 0.1 0  0.3 0.1 0  0.33 0.1 0  0.36 0.1 0  0.39 0.1 0  0.42 0.1 0  0.45 0.1 0  0.48 0.1 0  0.51 0.1 0  0.54 0.1 0  0.57 0.1 0  0.6 0.1 0  0.63 0.1 0  0.66 0.1 0  0.6899999999999999 0.1 0  0.72 0.1 0  0.75 0.1 0  0.78 0.1 0  0.8100000000000001 0.1 0  0.84 0.1 0  0.87 0.1 0  0.9 0.1 0  0.93 0.1 0  0.96 0.1 0  0.99 0.1 0  1.02 0.1 0  1.05 0.1 0  1.08 0.1 0  1.11 0.1 0  1.14 0.1 0  1.17 0.1 0  1.2 0.1 0  1.23 0.1 0  1.26 0.1 0  1.29 0.1 0  1.32 0.1 0  1.35 0.1 0  1.38 0.1 0  1.41 0.1 0  1.44 0.1 0  1.47 0.1 0  1.5 0.1 0  0 0.12 0  0.03 0.12 0  0.06 0.12 0  0.09 0.12 0  0.12 0.12 0  0.15 0.12 0  0.18 0.12 0  0.21 0.12 0  0.24 0.12 0  0.27 0.12 0  0.3 0.12 0  0.33 0.12 0  0.36 0.12 0  0.39 0.12 0  0.42 0.12 0  0.45 0.12 0  0.48 0.12 0  0.51 0.12 0  0.54 0.12 0  0.57 0.12 0  0.6 0.12 0  0.63 0.12 0  0.66 0.12 0  0.6899999999999999 0.12 0  0.72 0.12 0  0.75 0.12 0  0.78 0.12 0  0.8100000000000001 0.12 0  0.84 0.12 0  0.87 0.12 0  0.9 0.12 0  0.93 0.12 0  0.96 0.12 0  0.99 0.12 0  1.02 0.12 0  1.05 0.12 0  1.08 0.12 0  1.11 0.12 0  1.14 0.12 0  1.17 0.12 0  1.2 0.12 0  1.23 0.12 0  1.26 0.12 0  1.29 0.12 0  1.32 0.12 0  1.35 0.12 0  1.38 0.12 0  1.41 0.12 0  1.44 0.12 0  1.47 0.12 0  1.5 0.12 0  0 0.14 0  0.03 0.14 0  0.06 0.14 0  0.09 0.14 0  0.12 0.14 0  0.15 0.14 0  0.18 0.14 0  0.21 0.14 0  0.24 0.14 0  0.27 0.14 0  0.3 0.14 0  0.33 0.14 0  0.36 0.14 0  0.39 0.14 0  0.42 0.14 0  0.45 0.14 0  0.48 0.14 0  0.51 0.14 0  0.54 0.14 0  0.57 0.14 0  0.6 0.14 0  0.63 0.14 0  0.66 0.14 0  0.6899999999999999 0.14 0  0.72 0.14 0  0.75 0.14 0  0.78 0.14 0  0.8100000000000001 0.14 0  0.84 0.14 0  0.87 0.14 0  0.9 0.14 0  0.93 0.14 0  0.96 0.14 0  0.99 0.14 0  1.02 0.14 0  1.05 0.14 0  1.08 0.14 0  1.11 0.14 0  1.14 0.14 0  1.17 0.14 0  1.2 0.14 0  1.23 0.14 0  1.26 0.14 0  1.29 0.14 0  1.32 0.14 0  1.35 0.14 0  1.38 0.14 0  1.41 0.14 0  1.44 0.14 0  1.47 0.14 0  1.5 0.14 0  0 0.16 0  0.03 0.16 0  0.06 0.16 0  0.09 0.16 0  0.12 0.16 0  0.15 0.16 0  0.18 0.16 0  0.21 0.16 0  0.24 0.16 0  0.27 0.16 0  0.3 0.16 0  0.33 0.16 0  0.36 0.16 0  0.39 0.16 0  0.42 0.16 0  0.45 0.16 0  0.48 0.16 0  0.51 0.16 0  0.54 0.16 0  0.57 0.16 0  0.6 0.16 0  0.63 0.16 0  0.66 0.16 0  0.6899999999999999 0.16 0  0.72 0.16 0  0.75 0.16 0  0.78 0.16 0  0.8100000000000001 0.16 0  0.84 0.16 0  0.87 0.16 0  0.9 0.16 0  0.93 0.16 0  0.96 0.16 0  0.99 0.16 0  1.02 0.16 0  1.05 0.16 0  1.08 0.16 0  1.11 0.16 0  1.14 0.16 0  1.17 0.16 0  1.2 0.16 0  1.23 0.16 0  1.26 0.16 0  1.29 0.16 0  1.32 0.16 0  1.35 0.16 0  1.38 0.16 0  1.41 0.16 0  1.44 0.16 0  1.47 0.16 0  1.5 0.16 0  0 0.18 0  0.03 0.18 0  0.06 0.18 0  0.09 0.18 0  0.12 0.18 0  0.15 0.18 0  0.18 0.18 0  0.21 0.18 0  0.24 0.18 0  0.27 0.18 0  0.3 0.18 0  0.33 0.18 0  0.36 0.18 0  0.39 0.18 0  0.42 0.18 0  0.45 0.18 0  0.48 0.18 0  0.51 0.18 0  0.54 0.18 0  0.57 0.18 0  0.6 0.18 0  0.63 0.18 0  0.66 0.18 0  0.6899999999999999 0.18 0  0.72 0.18 0  0.75 0.18 0  0.78 0.18 0  0.8100000000000001 0.18 0  0.84 0.18 0  0.87 0.18 0  0.9 0.18 0  0.93 0.18 0  0.96 0.18 0  0.99 0.18 0  1.02 0.18 0  1.05 0.18 0  1.08 0.18 0  1.11 0.18 0  1.14 0.18 0  1.17 0.18 0  1.2 0.18 0  1.23 0.18 0  1.26 0.18 0  1.29 0.18 0  1.32 0.18 0  1.35 0.18 0  1.38 0.18 0  1.41 0.18 0  1.44 0.18 0  1.47 0.18 0  1.5 0.18 0  0 0.2 0  0.03 0.2 0  0.06 0.2 0  0.09 0.2 0  0.12 0.2 0  0.15 0.2 0  0.18 0.2 0  0.21 0.2 0  0.24 0.2 0  0.27 0.2 0  0.3 0.2 0  0.33 0.2 0  0.36 0.2 0  0.39 0.2 0  0.42 0.2 0  0.45 0.2 0  0.48 0.2 0  0.51 0.2 0  0.54 0.2 0  0.57 0.2 0  0.6 0.2 0  0.63 0.2 0  0.66 0.2 0  0.6899999999999999 0.2 0  0.72 0.2 0  0.75 0.2 0  0.78 0.2 0  0.8100000000000001 0.2 0  0.84 0.2 0  0.87 0.2 0  0.9 0.2 0  0.93 0.2 0  0.96 0.2 0  0.99 0.2 0  1.02 0.2 0  1.05 0.2 0  1.08 0.2 0  1.11 0.2 0  1.14 0.2 0  1.17 0.2 0  1.2 0.2 0  1.23 0.2 0  1.26 0.2 0  1.29 0.2 0  1.32 0.2 0  1.35 0.2 0  1.38 0.2 0  1.41 0.2 0  1.44 0.2 0  1.47 0.2 0  1.5 0.2 0  0 0.22 0  0.03 0.22 0  0.06 0.22 0  0.09 0.22 0  0.12 0.22 0  0.15 0.22 0  0.18 0.22 0  0.21 0.22 0  0.24 0.22 0  0.27 0.22 0  0.3 0.22 0  0.33 0.22 0  0.36 0.22 0  0.39 0.22 0  0.42 0.22 0  0.45 0.22 0  0.48 0.22 0  0.51 0.22 0  0.54 0.22 0  0.57 0.22 0  0.6 0.22 0  0.63 0.22 0  0.66 0.22 0  0.6899999999999999 0.22 0  0.72 0.22 0  0.75 0.22 0  0.78 0.22 0  0.8100000000000001 0.22 0  0.84 0.22 0  0.87 0.22 0  0.9 0.22 0  0.93 0.22 0  0.96 0.22 0  0.99 0.22 0  1.02 0.22 0  1.05 0.22 0  1.08 0.22 0  1.11 0.22 0  1.14 0.22 0  1.17 0.22 0  1.2 0.22 0  1.23 0.22 0  1.26 0.22 0  1.29 0.22 0  1.32 0.22 0  1.35 0.22 0  1.38 0.22 0  1.41 0.22 0  1.44 0.22 0  1.47 0.22 0  1.5 0.22 0  0 0.24 0  0.03 0.24 0  0.06 0.24 0  0.09 0.24 0  0.12 0.24 0  0.15 0.24 0  0.18 0.24 0  0.21 0.24 0  0.24 0.24 0  0.27 0.24 0  0.3 0.24 0  0.33 0.24 0  0.36 0.24 0  0.39 0.24 0  0.42 0.24 0  0.45 0.24 0  0.48 0.24 0  0.51 0.24 0  0.54 0.24 0  0.57 0.24 0  0.6 0.24 0  0.63 0.24 0  0.66 0.24 0  0.6899999999999999 0.24 0  0.72 0.24 0  0.75 0.24 0  0.78 0.24 0  0.8100000000000001 0.24 0  0.84 0.24 0  0.87 0.24 0  0.9 0.24 0  0.93 0.24 0  0.96 0.24 0  0.99 0.24 0  1.02 0.24 0  1.05 0.24 0  1.08 0.24 0  1.11 0.24 0  1.14 0.24 0  1.17 0.24 0  1.2 0.24 0  1.23 0.24 0  1.26 0.24 0  1.29 0.24 0  1.32 0.24 0  1.35 0.24 0  1.38 0.24 0  1.41 0.24 0  1.44 0.24 0  1.47 0.24 0  1.5 0.24 0  0 0.26 0  0.03 0.26 0  0.06 0.26 0  0.09 0.26 0  0.12 0.26 0  0.15 0.26 0  0.18 0.26 0  0.21 0.26 0  0.24 0.26 0  0.27 0.26 0  0.3 0.26 0  0.33 0.26 0  0.36 0.26 0  0.39 0.26 0  0.42 0.26 0  0.45 0.26 0  0.48 0.26 0  0.51 0.26 0  0.54 0.26 0  0.57 0.26 0  0.6 0.26 0  0.63 0.26 0  0.66 0.26 0  0.6899999999999999 0.26 0  0.72 0.26 0  0.75 0.26 0  0.78 0.26 0  0.8100000000000001 0.26 0  0.84 0.26 0  0.87 0.26 0  0.9 0.26 0  0.93 0.26 0  0.96 0.26 0  0.99 0.26 0  1.02 0.26 0  1.05 0.26 0  1.08 0.26 0  1.11 0.26 0  1.14 0.26 0  1.17 0.26 0  1.2 0.26 0  1.23 0.26 0  1.26 0.26 0  1.29 0.26 0  1.32 0.26 0  1.35 0.26 0  1.38 0.26 0  1.41 0.26 0  1.44 0.26 0  1.47 0.26 0  1.5 0.26 0  0 0.28 0  0.03 0.28 0  0.06 0.28 0  0.09 0.28 0  0.12 0.28 0  0.15 0.28 0  0.18 0.28 0  0.21 0.28 0  0.24 0.28 0  0.27 0.28 0  0.3 0.28 0  0.33 0.28 0  0.36 0.28 0  0.39 0.28 0  0.42 0.28 0  0.45 0.28 0  0.48 0.28 0  0.51 0.28 0  0.54 0.28 0  0.57 0.28 0  0.6 0.28 0  0.63 0.28 0  0.66 0.28 0  0.6899999999999999 0.28 0  0.72 0.28 0  0.75 0.28 0  0.78 0.28 0  0.8100000000000001 0.28 0  0.84 0.28 0  0.87 0.28 0  0.9 0.28 0  0.93 0.28 0  0.96 0.28 0  0.99 0.28 0  1.02 0.28
[...]
<PointData  Scalars="sensitivity"> 
<DataArray  type="Float64"  Name="sensitivity"  format="ascii">-1.3043629474100689e-06  -1.8496140559050958e-05  -7.7028898521475005e-05  -1.9597011582105528e-04  -3.7567335202756430e-04  -5.9354284757130000e-04  -8.1745523379743597e-04  -1.0200613547312486e-03  -1.1852214421865807e-03  -1.3075234293987979e-03  -1.3885208415492800e-03  -1.4332497075406775e-03  -1.4482229044311898e-03  -1.4403536649108058e-03  -1.4162439561794459e-03  -1.3817226850761208e-03  -1.3416377003540804e-03  -1.2998334507888323e-03  -1.2592222995901799e-03  -1.2218976059859095e-03  -1.1892732618949673e-03  -1.1622405400115827e-03  -1.1413239073050964e-03  -1.1268136227672811e-03  -1.1188609282051338e-03  -1.1175348681151851e-03  -1.1228487978833534e-03  -1.1347648681769977e-03  -1.1531779507122459e-03  -1.1778723646681214e-03  -1.2084418601804629e-03  -1.2441693609665620e-03  -1.2838758197289992e-03  -1.3257580409443139e-03  -1.3672365276962213e-03  -1.4048287498938381e-03  -1.4340695134143324e-03  -1.4495201696872542e-03  -1.4449234623651998e-03  -1.4135414909435956e-03  -1.3486159795368291e-03  -1.2441720685101294e-03  -1.0967883289420039e-03  -9.0865758185565870e-04  -6.9140945747157173e-04  -4.6757942342914670e-04  -2.6766398327324263e-04  -1.2080989331137026e-04  -3.8171487737647895e-05  -5.4757808561317883e-06  -5.2715299561743203e-08  -9.3794170164128848e-06  -7.5545871646617185e-05  -3.0080751403618666e-04  -7.9025526185481487e-04  -1.5631765611241384e-03  -2.5325678763239534e-03  -3.5564157169307828e-03  -4.5037977256561857e-03  -5.2911826305781628e-03  -5.8858047970379796e-03  -6.2898431523978823e-03  -6.5235989329231340e-03  -6.6154983826774471e-03  -6.5968116034951334e-03  -6.4981076216706294e-03  -6.3468138637229922e-03  -6.1660102600486020e-03  -5.9741890468572780e-03  -5.7855117865448563e-03  -5.6102783105743889e-03  -5.4555285433932699e-03  -5.3257477259672226e-03  -5.2235972776698012e-03  -5.1505601875034591e-03  -5.1074187479476299e-03  -5.0945477577497220e-03  -5.1120585084017522e-03  -5.1598388288209944e-03  -5.2375054540157468e-03  -5.3442427087645808e-03  -5.4784786654521259e-03  -5.6373700765079303e-03  -5.8161264927573753e-03  -6.0072659426373800e-03  -6.1999082564020416e-03  -6.3791709030044256e-03  -6.5257460160881636e-03  -6.6158163382817031e-03  -6.6216765210838687e-03  -6.5131152518992392e-03  -6.2593536792090228e-03  -5.8318741546932867e-03  -5.2112732884526400e-03  -4.3991219522126245e-03  -3.4359377005352232e-03  -2.4122135685471151e-03  -1.4584249471134834e-03  -7.1416637123475899e-04  -2.6088323523594227e-04  -6.2296612359422895e-05  -3.6021522037320270e-06  -2.7054774421649663e-05  -1.4692156329841792e-04  -4.3705637825537175e-04  -1.0521215166058181e-03  -1.9939835999352577e-03  -3.1430537263204645e-03  -4.3343525512162615e-03  -5.4210140113239496e-03  -6.3130805293593580e-03  -6.9801209303531099e-03  -7.4285525956362588e-03  -7.6819866409995313e-03  -7.7725089336093548e-03  -7.7360899126083932e-03  -7.6082886772109934e-03  -7.4209846127712463e-03  -7.2009145286756632e-03  -6.9694953446553590e-03  -6.7431466069253366e-03  -6.5337737479237669e-03  -6.3494138437452455e-03  -6.1950654222276578e-03  -6.0735964901969903e-03  -5.9865527026434998e-03  -5.9347362277253563e-03  -5.9185362639568488e-03  -5.9380760163742661e-03  -5.9932537107841690e-03  -6.0837060184133311e-03  -6.2086516620935509e-03  -6.3665314830875291e-03  -6.5543885587459700e-03  -6.7670267271379234e-03  -6.9961011792315829e-03  -7.2292927683959987e-03  -7.4496262272475827e-03  -7.6349807329600550e-03  -7.7579209581582860e-03  -7.7865213263723330e-03  -7.6859236240349928e-03  -7.4214809214480579e-03  -6.9600894630051993e-03  -6.2768286215091279e-03  -5.3657279235411071e-03  -4.2641350653916735e-03  -3.0717050820696498e-03  -1.9280324785200388e-03  -9.9359680696048825e-04  -3.9781206269212828e-04  -1.3066078301762602e-04  -1.6363585753011937e-05  -4.4266477629479668e-05  -2.4909847724932465e-04  -6.5049648039212341e-04  -1.4067184256746504e-03  -2.4509670467605270e-03  -3.6402018201039158e-03  -4.8270024051470638e-03  -5.8737572900700299e-03  -6.7063353757705743e-03  -7.3140143275300454e-03  -7.7112756342993007e-03  -7.9205186380456351e-03  -7.9716621531150909e-03  -7.9003120384148386e-03  -7.7422993948342749e-03  -7.5293737893131173e-03  -7.2878423661316260e-03  -7.0387558353423099e-03  -6.7982925751989857e-03  -6.5780829629234639e-03  -6.3857303902245706e-03  -6.2256737138762404e-03  -6.1002342279931239e-03  -6.0105488639044819e-03  -5.9571862700914385e-03  -5.9404366165543504e-03  -5.9603991358665514e-03  -6.0170014578718473e-03  -6.1099985814799442e-03  -6.2388809255286993e-03  -6.4025456205632578e-03  -6.5986200277288725e-03  -6.8224821036811760e-03  -7.0662342985878691e-03  -7.3178653511831050e-03  -7.5607026822035470e-03  -7.7729199811929182e-03  -7.9271400425821245e-03  -7.9911818826840578e-03  -7.9304450119729395e-03  -7.7142423568426896e-03  -7.3096770061617253e-03  -6.6880341747125498e-03  -5.8340288065563259e-03  -4.7643731269733812e-03  -3.5755645271766125e-03  -2.3873607923213459e-03  -1.3313274560986016e-03  -5.7887897870596643e-04  -2.1200997677956970e-04  -3.4296268170334061e-05  -4.1173293070776699e-05  -3.7469818685054249e-04  -1.0710664009295962e-03  -2.1172117959917061e-03  -3.2652069476192176e-03  -4.4338081436841236e-03  -5.5625439804040258e-03  -6.5023242807558676e-03  -7.2114210815339549e-03  -7.7141631878006696e-03  -8.0289159889941376e-03  -8.1693403724006231e-03  -8.1600971901494915e-03  -8.0366653767887600e-03  -7.8353540248584739e-03  -7.5870997147589802e-03  -7.3169199824882980e-03  -7.0449584948740927e-03  -6.7868832999044299e-03  -6.5538139984265345e-03  -6.3525731154334989e-03  -6.1866124346737191e-03  -6.0573238594800209e-03  -5.9651910914492092e-03  -5.9104471275028712e-03  -5.8932634694605556e-03  -5.9137133124421730e-03  -5.9717454564279038e-03  -6.0672522196363625e-03  -6.2001115272950214e-03  -6.3699415257782157e-03  -6.5753449522254022e-03  -6.8126795488713029e-03  -7.0747836212683964e-03  -7.3502166771619538e-03  -7.6230212807943034e-03  -7.8719990260724074e-03  -8.0703494084138194e-03  -8.1856452762679340e-03  -8.1852390617527162e-03  -8.0414395243619628e-03  -7.7263275298919062e-03  -7.2119055493574140e-03  -6.4912853416589263e-03  -5.5116234530319143e-03  -4.3842946852359439e-03  -3.2389811500004224e-03  -2.0507720842096299e-03  -9.5971826330931622e-04  -2.8042387837262439e-04  -4.0993585293272079e-05  -4.5288626872798256e-05  -7.0907557056448041e-04  -2.6703983409122243e-03  -5.0125144275397849e-03  -5.9995618149940528e-03  -6.3996726639288315e-03  -6.9059249412278569e-03  -7.4359599513801871e-03  -7.8893903484163839e-03  -8.2336307527503764e-03  -8.4412411385904277e-03  -8.4919655765858752e-03  -8.4013872549580926e-03  -8.2078129818348895e-03  -7.9493077561840000e-03  -7.6549642739899551e-03  -7.3474122246347685e-03  -7.0455353799257605e-03  -6.7645591949690052e-03  -6.5150936693319844e-03  -6.3028731104801247e-03  -6.1298485442824397e-03  -5.9960167449516740e-03  -5.9009559256416834e-03  -5.8445164620304557e-03  -5.8267947533928348e-03  -5.8478595494758706e-03  -5.9076400040892433e-03  -6.0061198917262778e-03  -6.1436373526001170e-03  -6.3208262455783943e-03  -6.5377588467100236e-03  -6.7922708856401779e-03  -7.0781422833763510e-03  -7.3846373233360822e-03  -7.6964167919659193e-03  -7.9935086308195388e-03  -8.2516339620469659e-03  -8.4356849014856992e-03  -8.5131146342846218e-03  -8.4496627080973188e-03  -8.2958265687506135e-03  -7.9846182188071813e-03  -7.6442585501535687e-03  -7.2011388710584772e-03  -6.8516378335240066e-03  -6.3428665495627919e-03  -4.3707740591559510e-03  -1.8915117503358965e-03  -3.8677147363976603e-04  -2.7525481696653815e-05  -5.9558976475985353e-04  -3.0366649758529506e-03  -1.0715495622622279e-02  -1.9677439424531162e-02  -2.2405482101624428e-02  -1.8556601061560235e-02  -1.3456015412164679e-02  -1.0053855140992546e-02  -8.9598633295280752e-03  -8.9051724603190496e-03  -8.9580694100155189e-03  -8.8954465777183241e-03  -8.6983773883095722e-03  -8.4144411681252012e-03  -8.0851250985562693e-03  -7.7344962015506447e-03  -7.3809255964472293e-03  -7.0418593586022340e-03  -6.7325659310755806e-03  -6.4633959373253669e-03  -6.2386014475448006e-03  -6.0578552918859685e-03  -5.9190971484756024e-03  -5.8207247450346054e-03  -5.7622586600501327e-03  -5.7438744316658814e-03  -5.7656986009930388e-03  -5.8275422431120858e-03  -5.9293149144169924e-03  -6.0718001019864814e-03  -6.2569997293050244e-03  -6.4871761537856126e-03  -6.7624288439065219e-03  -7.0775937270863929e-03  -7.4223696305765908e-03  -7.7816957050180664e-03  -8.1400725272361193e-03  -8.4744254031644990e-03  -8.7422169202480016e-03  -8.9216517781296589e-03  -8.9797922933657296e-03  -9.1817810750557029e-03  -9.5223176493884881e-03  -1.1071413604674696e-02  -1.3780191589189476e-02  -1.7908323439265718e-02  -2.2268440876971447e-02  -2.0276450040893800e-02  -1.1913284486593108e-02  -2.5283371536664306e-03  -9.3207824904198081e-05  -1.8126349321426153e-03  -1.8756767514700585e-02  -3.1506909236082487e-02  -3.1521063708314319e-02  -3.1523092166175645e-02  -3.1511627556960776e-02  -3.1499102409631441e-02  -2.5009088734254278e-02  -1.4398145633010116e-02  -1.0396948061420804e-02  -9.6677004366670510e-03  -9.3987902505670295e-03  -9.0498913491937234e-03  -8.6514655597327086e-03  -8.2394469337342350e-03  -7.8236482352716571e-03  -7.4155024114711983e-03  -7.0315000463990751e-03  -6.6882219415562941e-03  -6.3964799647525340e-03  -6.1584266962006603e-03  -5.9701630621508735e-03  -5.8265783353420413e-03  -5.7246168614746027e-03  -5.6637290705386749e-03  -5.6445215451973495e-03  -5.6673119571752605e-03  -5.7315976910032960e-03  -5.8368229467680582e-03  -5.9840239394393481e-03  -6.1769893229654598e-03  -6.4212331566603610e-03  -6.7204880972665379e-03  -7.0707183663601672e-03  -7.4609691165730676e-03  -7.8773369857532295e-03  -8.3090499729141093e-03  -8.7291953860406200e-03  -9.1311093149586096e-03  -9.4822718055987982e-03  -9.8484965700913699e-03  -1.1616685737642496e-02  -1.5075608598105505e-02  -2.3201799347300732e-02  -3.1473825528923124e-02  -3.1505441026905612e-02  -3.1525928146022418e-02  -3.1522056950334484e-02  -3.1509651304145035e-02  -1.9159620574754989e-02  -1.7580038191819009e-03  -9.4174914368987273e-03  -3.1518092520871378e-02  -3.1520334568821855e-02  -3.1520866466308244e-02  -3.1521323499584621e-02  -3.1517828727862802e-02  -3.1514117619335570e-02  -3.1511148820962294e-02  -3.1503218311842336e-02  -1.9235308653393034e-02  -1.2023695935905493e-02  -1.0162741101728236e-02  -9.4661371640926972e-03  -8.9109501034696191e-03  -8.4091622322831506e-03  -7.9207914034520183e-03  -7.4492585197882101e-03  -7.0113900629757090e-03  -6.6276976533146759e-03  -6.3111560648858598e-03  -6.0606221803359301e-03  -5.8663363066557110e-03  -5.7186125788615157e-03  -5.6127569512638593e-03  -5.5488253735888771e-03  -5.5285357309531949e-03  -5.5526476794879901e-03  -5.6200030270699176e-03  -5.7287797950586446e-03  -5.8797347832803782e-03  -6.0788308207437268e-03  -6.3364754477439160e-03  -6.6627603267883891e-03  -7.0555395927075770e-03  -7.4980624901006985e-03  -7.9815319427299549e-03  -8.4879830570344459e-03  -9.0428355624556020e-03  -9.7014899304206439e-03  -1.0591947727038007e-02  -1.2914758588773653e-02  -1.9223280683351343e-02  -3.1479033786198887e-02  -3.1487636634117681e-02  -3.1510513549196657e-02  -3.1516276373452307e-02  -3.1520958784628544e-02  -3.1523016338959160e-02  -3.1520972257437087e-02  -3.1517398518865987e-02  -7.1381683947631062e-03  -1.5760635829053835e-02  -3.1520564114307328e-02  -3.1519493651006120e-02  -3.1520316576060262e-02  -3.1520570168842535e-02  -3.1520201929334746e-02  -3.1519665871504766e-02  -3.1515980016021884e-02  -3.1520045745915749e-02  -3.1529711093984961e-02  -2.4614561535213110e-02  -1.3783543077966811e-02  -1.0199894530650322e-02  -9.2205188558203682e-03  -8.6002802203780249e-03  -8.0267209505564003e-03  -7.4816148358065639e-03  -6.9782201500981460e-03  -6.5456634308462738e-03  -6.2031639392110902e-03  -5.9433659025936343e-03  -5.7464878354869554e-03  -5.5959537414242404e-03  -5.4855386975293493e-03  -5.4173942574465587e-03  -5.3955543700677181e-03  -5.4216417469218235e-03  -5.4933332712272008e-03  -5.6059923264708813e-03  -5.7588985758518499e-03  -5.9603842309252008e-03  -6.2286258131955454e-03  -6.5841187063934350e-03  -7.0312556185167518e-03  -7.5297820827159422e-03  -8.1026086822453339e-03  -8.6979386147978191e-03  -9.5416839680268241e-03  -1.1201885478656939e-02  -1.4492507601699981e-02  -2.3023505488362128e-02  -3.1562150660413422e-02  -3.1537753901916377e-02  -3.1518314332726984e-02  -3.1517153183851301e-02  -3.1519241945467472e-02  -3.1520063275197650e-02  -3.1519976493309058e-02  -3.1519046133906298e-02  -3.1518398183864073e-02  -1.5758706418527956e-02  -1.8326371006701089e-02  -3.1540389306817587e-02  -3.1521758587354995e-02  -3.1521469155566251e-02  -3.1520714808819593e-02  -3.1520181250343837e-02  -3.1520323347472297e-02  -3.1520379792781363e-02  -3.1519180091957047e-02  -3.1518844156023733e-02  -3.1514400853638658e-02  -3.0467689949914577e-02  -1.5587975190717409e-02  -1.0290234411360484e-02  -8.9289698946084899e-03  -8.1608735602068470e-03  -7.5206711324528356e-03  -6.9308449822451327e-03  -6.4350841440447663e-03  -6.0675990395952948e-03  -5.8056280587038935e-03  -5.6123065838332110e-03  -5.4608011741649858e-03  -5.3440500313761616e-03  -5.2694464393497793e-03  -5.2453076393491399e-03  -5.2744725407706788e-03  -5.3531175892858919e-03  -5.4708373744086240e-03  -5.6230388045242852e-03  -5.8205056204854617e-03  -6.0933477721603320e-03  -6.4766231984832974e-03  -7.0092950905050926e-03  -7.5788442737618521e-03  -8.3021133651458821e-03  -9.1789449983394437e-03  -1.1664543607193904e-02  -1.6353445696688330e-02  -2.7501655099633156e-02  -3.1501308909672170e-02  -3.1519829642387455e-02  -3.1528793815781747e-02  -3.1521697631604215e-02  -3.1519357142207473e-02  -3.1520247924916978e-02  -3.1521212237736650e-02  -3.1521303751023806e-02  -3.1522143738291257e-02  -3.1811737951962842e-02  -1.6625110334677083e-02  -2.8533040464865492e-02  -4.6138504276349253e-02  -3.5624948514140921e-02  -3.1523081672116829e-02  -3.1521544859073436e-02  -3.1521101994151590e-02  -3.1520355865676135e-02  -3.1520306123975522e-02  -3.1520763740019955e-02  -3.1520450327333707e-02  -3.1514957357043072e-02  -3.1511211453054480e-02  -3.1473517858460982e-02  -1.9093145046528561e-02  -1.1373297443565900e-02  -8.7066108017543730e-03  -7.6941380163439250e-03  -6.9128583234623793e-03  -6.3084663472515092e-03  -5.9142267954441913e-03  -5.6577619418469978e-03  -5.4754700715460422e-03  -5.3237674232578282e-03  -5.1956707908063070e-03  -5.1103687168084994e-03  -5.0827794526188998e-03  -5.1164504914044768e-03  -5.2083087834455801e-03  -5.3359086127359075e-03  -5.4868894101662083e-03  -5.6755775688336401e-03  -5.9489204727946115e-03  -6.3667334445637941e-03  -7.0778280721605401e-03  -7.8582770035270141e-03  -9.4184027246787747e-03  -1.2428420934979702e-02  -1.8973333277883028e-02  -3.1420845425183780e-02  -3.1490169759852020e-02  -3.1512704207437618e-02  -3.1520763402023852e-02  -3.1521504405260220e-02  -3.1521165295611317e-02  -3.1520910708253295e-02  -3.1521405996807340e-02  -3.1521507521721691e-02  -3.1523388413052543e-02  -3.7739163955442724e-02  -4.7930778022064295e-02  -2.5075466175648722e-02  -3.5080402771816760e-02  -6.0546879582023767e-02  -4.6019521462855616e-02  -3.5288382070499148e-02  -3.1522679203112851e-02  -3.1522098084642375e-02  -3.1521331502705703e-02  -3.1520605871702634e-02  -3.1520151177186394e-02  -3.1520518540595698e-02  -3.1520643228071944e-02  -3.1516289257183285e-02  -3.1518333337935814e-02  -3.1494916586245786e-02  -2.6604148922215281e-02  -1.5730552275432744e-02  -1.0374044414552471e-02  -7.8684726179081618e-03  -6.6743141319111528e-03  -6.0650539113808527e-03  -5.7170377820953758e-03  -5.4961759202188211e-03  -5.3139894793215667e-03  -5.1520643163032540e-03  -5.0456387653531878e-03  -5.0130084772481466e-03  -5.0554312140822641e-03  -5.1789714361614187e-03  -5.3446735064263187e-03  -5.5379866271722186e-03  -5.7955493869375520e-03  -6.2116339993521135e-03  -6.9518170977122202e-03  -8.7095666913786281e-03  -1.1287706013243092e-02  -1.5546136750572037e-02  -2.5142614921847641e-02  -3.1458683642736678e-02  -3.1549691649255453e-02  -3.1522666384672944e-02  -3.1517678000703181e-02  -3.1520072639019035e-02  -3.1521340259544228e-02  -3.1521571269747549e-02  -3.1521653687070814e-02  -3.1521512447812053e-02  -3.1523340775888233e-02  -3.6357153206568966e-02  -4.6458311472183121e-02  -6.0499427102784525e-02  -3.3666353402271997e-02  -3.4014057570699988e-02  -6.2913798622139902e-02  -5.0483480002162608e-02  -3.9846158348383710e-02  -3.2802222134071968e-02  -3.1522784266356844e-02  -3.1522127658897607e-02  -3.1521615572654642e-02  -3.1520646256303603e-02  -3.1519748243334221e-02  -3.1520059521158370e-02  -3.1520806697643643e-02  -3.1518436443635993e-02  -3.1516018451589932e-02  -3.1515343631598053e-02  -3.1532894838963481e-02  -2.8234843258750867e-02  -1.9379831464559821e-02  -1.4291935885286277e-02  -1.1657815239570213e-02  -1.0090005132565801e-02  -9.1179293725459753e-03  -8.4360099173068828e-03  -7.9645007395581970e-03  -7.7303054342690910e-03  -7.6774969182552425e-03  -7.7856092889589867e-03  -8.1077750859746816e-03  -8.5743591447540162e-03  -9.2075393530869649e-03  -1.0169261121778414e-02  -1.1698185848905781e-02  -1.4203540269964331e-02  -1.8948973776543764e-02  -2.7391653034764513e-02  -3.1428579656731362e-02  -3.1493328625712969e-02  -3.1508320770998632e-02  -3.1522970147760294e-02  -3.1524970936750413e-02  -3.1519946377220547e-02  -3.1520742354933191e-02  -3.1521651637978307e-02  -3.1522149284948078e-02  -3.1522542800131871e-02  -3.1522668301114644e-02  -3.3328973764037734e-02  -3.9793015468184867e-02  -4.9833200595351901e-02  -6.2143421533356287e-02  -3.5179879278314938e-02  -2.5773094283641294e-02  -5.2483086634328789e-02  -4.5938854903058449e-02  -3.9539474068155799e-02  -3.4225382407213831e-02  -3.1525262006574115e-02  -3.1523071198484368e-02  -3.1522108963065551e-02  -3.1521706631094416e-02  -3.1520522013303284e-02  -3.1519418081003350e-02  -3.1519639955718021e-02  -3.1520853209412024e-02  -3.1520353170876585e-02  -3.1517259142121792e-02  -3.1522191799889368e-02  -3.1516901316082965e-02  -3.1482696144439347e-02  -3.1549950916561383e-02  -3.1462838162206283e-02  -3.1476970332971060e-02  -3.1385040043424135e-02  -3.0985939391010780e-02  -2.9818614381222665e-02  -2.9008869043262952e-02  -2.8749619143419877e-02  -2.8960794468041683e-02  -2.9714941561886123e-02  -3.0878379419426984e-02  -3.1384271386042252e-02  -3.1538185545318530e-02  -3.1482411801939898e-02  -3.1519716501460959e-02  -3.1508910687181535e-02  -3.1541938818284730e-02  -3.1523796075689649e-02  -3.1512277048476901e-02  -3.1519180694880793e-02  -3.1519536714240570e-02  -3.1520408463927507e-02  -3.1520645626798065e-02  -3.1521609090987682e-02  -3.1522137732351699e-02  -3.1522583054316246e-02  -3.1523252636383454e-02  -3.1526691480604677e-02  -3.4121069351368299e-02  -3.8784073379086209e-02  -4.4794826710922546e-02  -5.1203796266063369e-02  -2.9053067928831985e-02  -1.6698178710428519e-02  -3.6184283126083801e-02  -3.5935866481521424e-02  -3.4728722506384327e-02  -3.2988022491634031e-02  -3.1530673622974160e-02  -3.1523455609011056e-02  -3.1522522971540852e-02  -3.1522219689587849e-02  -3.1521676873985834e-02  -3.1520473535790620e-02  -3.1519307146641619e-02  -3.1519204743381095e-02  -3.1520438769007862e-02  -3.1521735552026781e-02  -3.1522392009894838e-02  -3.1520257255652204e-02  -3.1512394351767607e-02  -3.1518238985852251e-02  -3.1520959604078885e-02  -3.1513659823681234e-02  -3.1517826491620528e-02  -3.1515267623179341e-02  -3.1519098566711000e-02  -3.1517754570067766e-02  -3.1518466046600482e-02  -3.1518230038785691e-02  -3.1516781058358978e-02  -3.1514706720895964e-02  -3.1510398079751402e-02  -3.1518685802971985e-02  -