<?xml version="1.0"?>
<VTKFile type="UnstructuredGrid"  version="0.1"  >
<UnstructuredGrid>
<Piece  NumberOfPoints="2601" NumberOfCells="5000">
<Points>
<DataArray  type="Float64"  NumberOfComponents="3"  format="ascii">0 0 0  0.03 0 0  0.06 0 0  0.09 0 0  0.12 0 0  0.15 0 0  0.18 0 0  0.21 0 0  0.24 0 0  0.27 0 0  0.3 0 0  0.33 0 0  0.36 0 0  0.39 0 0  0.42 0 0  0.45 0 0  0.48 0 0  0.51 0 0  0.54 0 0  0.57 0 0  0.6 0 0  0.63 0 0  0.66 0 0  0.6899999999999999 0 0  0.72 0 0  0.75 0 0  0.78 0 0  0.8100000000000001 0 0  0.84 0 0  0.87 0 0  0.9 0 0  0.93 0 0  0.96 0 0  0.99 0 0  1.02 0 0  1.05 0 0  1.08 0 0  1.11 0 0  1.14 0 0  1.17 0 0  1.2 0 0  1.23 0 0  1.26 0 0  1.29 0 0  1.32 0 0  1.35 0 0  1.38 0 0  1.41 0 0  1.44 0 0  1.47 0 0  1.5 0 0  0 0.02 0  0.03 0.02 0  0.06 0.02 0  0.09 0.02 0  0.12 0.02 0  0.15 0.02 0  0.18 0.02 0  0.21 0.02 0  0.24 0.02 0  0.27 0.02 0  0.3 0.02 0  0.33 0.02 0  0.36 0.02 0  0.39 0.02 0  0.42 0.02 0  0.45 0.02 0  0.48 0.02 0  0.51 0.02 0  0.54 0.02 0  0.57 0.02 0  0.6 0.02 0  0.63 0.02 0  0.66 0.02 0  0.6899999999999999 0.02 0  0.72 0.02 0  0.75 0.02 0  0.78 0.02 0  0.8100000000000001 0.02 0  0.84 0.02 0  0.87 0.02 0  0.9 0.02 0  0.93 0.02 0  0.96 0.02 0  0.99 0.02 0  1.02 0.02 0  1.05 0.02 0  1.08 0.02 0  1.11 0.02 0  1.14 0.02 0  1.17 0.02 0  1.2 0.02 0  1.23 0.02 0  1.26 0.02 0  1.29 0.02 0  1.32 0.02 0  1.35 0.02 0  1.38 0.02 0  1.41 0.02 0  1.44 0.02 0  1.47 0.02 0  1.5 0.02 0  0 0.04 0  0.03 0.04 0  0.06 0.04 0  0.09 0.04 0  0.12 0.04 0  0.15 0.04 0  0.18 0.04 0  0.21 0.04 0  0.24 0.04 0  0.27 0.04 0  0.3 0.04 0  0.33 0.04 0  0.36 0.04 0  0.39 0.04 0  0.42 0.04 0  0.45 0.04 0  0.48 0.04 0  0.51 0.04 0  0.54 0.04 0  0.57 0.04 0  0.6 0.04 0  0.63 0.04 0  0.66 0.04 0  0.6899999999999999 0.04 0  0.72 0.04 0  0.75 0.04 0  0.78 0.04 0  0.8100000000000001 0.04 0  0.84 0.04 0  0.87 0.04 0  0.9 0.04 0  0.93 0.04 0  0.96 0.04 0  0.99 0.04 0  1.02 0.04 0  1.05 0.04 0  1.08 0.04 0  1.11 0.04 0  1.14 0.04 0  1.17 0.04 0  1.2 0.04 0  1.23 0.04 0  1.26 0.04 0  1.29 0.04 0  1.32 0.04 0  1.35 0.04 0  1.38 0.04 0  1.41 0.04 0  1.44 0.04 0  1.47 0.04 0  1.5 0.04 0  0 0.06 0  0.03 0.06 0  0.06 0.06 0  0.09 0.06 0  0.12 0.06 0  0.15 0.06 0  0.18 0.06 0  0.21 0.06 0  0.24 0.06 0  0.27 0.06 0  0.3 0.06 0  0.33 0.06 0  0.36 0.06 0  0.39 0.06 0  0.42 0.06 0  0.45 0.06 0  0.48 0.06 0  0.51 0.06 0  0.54 0.06 0  0.57 0.06 0  0.6 0.06 0  0.63 0.06 0  0.66 0.06 0  0.6899999999999999 0.06 0  0.72 0.06 0  0.75 0.06 0  0.78 0.06 0  0.8100000000000001 0.06 0  0.84 0.06 0  0.87 0.06 0  0.9 0.06 0  0.93 0.06 0  0.96 0.06 0  0.99 0.06 0  1.02 0.06 0  1.05 0.06 0  1.08 0.06 0  1.11 0.06 0  1.14 0.06 0  1.17 0.06 0  1.2 0.06 0  1.23 0.06 0  1.26 0.06 0  1.29 0.06 0  1.32 0.06 0  1.35 0.06 0  1.38 0.06 0  1.41 0.06 0  1.44 0.06 0  1.47 0.06 0  1.5 0.06 0  0 0.08 0  0.03 0.08 0  0.06 0.08 0  0.09 0.08 0  0.12 0.08 0  0.15 0.08 0  0.18 0.08 0  0.21 0.08 0  0.24 0.08 0  0.27 0.08 0  0.3 0.08 0  0.33 0.08 0  0.36 0.08 0  0.39 0.08 0  0.42 0.08 0  0.45 0.08 0  0.48 0.08 0  0.51 0.08 0  0.54 0.08 0  0.57 0.08 0  0.6 0.08 0  0.63 0.08 0  0.66 0.08 0  0.6899999999999999 0.08 0  0.72 0.08 0  0.75 0.08 0  0.78 0.08 0  0.8100000000000001 0.08 0  0.84 0.08 0  0.87 0.08 0  0.9 0.08 0  0.93 0.08 0  0.96 0.08 0  0.99 0.08 0  1.02 0.08 0  1.05 0.08 0  1.08 0.08 0  1.11 0.08 0  1.14 0.08 0  1.17 0.08 0  1.2 0.08 0  1.23 0.08 0  1.26 0.08 0  1.29 0.08 0  1.32 0.08 0  1.35 0.08 0  1.38 0.08 0  1.41 0.08 0  1.44 0.08 0  1.47 0.08 0  1.5 0.08 0  0 0.1 0  0.03 0.1 0  0.06 0.1 0  0.09 0.1 0  0.12 0.1 0  0.15 0.1 0  0.18 0.1 0  0.21 0.1 0  0.24 0.1 0  0.27 0.1 0  0.3 0.1 0  0.33 0.1 0  0.36 0.1 0  0.39 0.1 0  0.42 0.1 0  0.45 0.1 0  0.48 0.1 0  0.51 0.1 0  0.54 0.1 0  0.57 0.1 0  0.6 0.1 0  0.63 0.1 0  0.66 0.1 0  0.6899999999999999 0.1 0  0.72 0.1 0  0.75 0.1 0  0.78 0.1 0  0.8100000000000001 0.1 0  0.84 0.1 0  0.87 0.1 0  0.9 0.1 0  0.93 0.1 0  0.96 0.1 0  0.99 0.1 0  1.02 0.1 0  1.05 0.1 0  1.08 0.1 0  1.11 0.1 0  1.14 0.1 0  1.17 0.1 0  1.2 0.1 0  1.23 0.1 0  1.26 0.1 0  1.29 0.1 0  1.32 0.1 0  1.35 0.1 0  1.38 0.1 0  1.41 0.1 0  1.44 0.1 0  1.47 0.1 0  1.5 0.1 0  0 0.12 0  0.03 0.12 0  0.06 0.12 0  0.09 0.12 0  0.12 0.12 0  0.15 0.12 0  0.18 0.12 0  0.21 0.12 0  0.24 0.12 0  0.27 0.12 0  0.3 0.12 0  0.33 0.12 0  0.36 0.12 0  0.39 0.12 0  0.42 0.12 0  0.45 0.12 0  0.48 0.12 0  0.51 0.12 0  0.54 0.12 0  0.57 0.12 0  0.6 0.12 0  0.63 0.12 0  0.66 0.12 0  0.6899999999999999 0.12 0  0.72 0.12 0  0.75 0.12 0  0.78 0.12 0  0.8100000000000001 0.12 0  0.84 0.12 0  0.87 0.12 0  0.9 0.12 0  0.93 0.12 0  0.96 0.12 0  0.99 0.12 0  1.02 0.12 0  1.05 0.12 0  1.08 0.12 0  1.11 0.12 0  1.14 0.12 0  1.17 0.12 0  1.2 0.12 0  1.23 0.12 0  1.26 0.12 0  1.29 0.12 0  1.32 0.12 0  1.35 0.12 0  1.38 0.12 0  1.41 0.12 0  1.44 0.12 0  1.47 0.12 0  1.5 0.12 0  0 0.14 0  0.03 0.14 0  0.06 0.14 0  0.09 0.14 0  0.12 0.14 0  0.15 0.14 0  0.18 0.14 0  0.21 0.14 0  0.24 0.14 0  0.27 0.14 0  0.3 0.14 0  0.33 0.14 0  0.36 0.14 0  0.39 0.14 0  0.42 0.14 0  0.45 0.14 0  0.48 0.14 0  0.51 0.14 0  0.54 0.14 0  0.57 0.14 0  0.6 0.14 0  0.63 0.14 0  0.66 0.14 0  0.6899999999999999 0.14 0  0.72 0.14 0  0.75 0.14 0  0.78 0.14 0  0.8100000000000001 0.14 0  0.84 0.14 0  0.87 0.14 0  0.9 0.14 0  0.93 0.14 0  0.96 0.14 0  0.99 0.14 0  1.02 0.14 0  1.05 0.14 0  1.08 0.14 0  1.11 0.14 0  1.14 0.14 0  1.17 0.14 0  1.2 0.14 0  1.23 0.14 0  1.26 0.14 0  1.29 0.14 0  1.32 0.14 0  1.35 0.14 0  1.38 0.14 0  1.41 0.14 0  1.44 0.14 0  1.47 0.14 0  1.5 0.14 0  0 0.16 0  0.03 0.16 0  0.06 0.16 0  0.09 0.16 0  0.12 0.16 0  0.15 0.16 0  0.18 0.16 0  0.21 0.16 0  0.24 0.16 0  0.27 0.16 0  0.3 0.16 0  0.33 0.16 0  0.36 0.16 0  0.39 0.16 0  0.42 0.16 0  0.45 0.16 0  0.48 0.16 0  0.51 0.16 0  0.54 0.16 0  0.57 0.16 0  0.6 0.16 0  0.63 0.16 0  0.66 0.16 0  0.6899999999999999 0.16 0  0.72 0.16 0  0.75 0.16 0  0.78 0.16 0  0.8100000000000001 0.16 0  0.84 0.16 0  0.87 0.16 0  0.9 0.16 0  0.93 0.16 0  0.96 0.16 0  0.99 0.16 0  1.02 0.16 0  1.05 0.16 0  1.08 0.16 0  1.11 0.16 0  1.14 0.16 0  1.17 0.16 0  1.2 0.16 0  1.23 0.16 0  1.26 0.16 0  1.29 0.16 0  1.32 0.16 0  1.35 0.16 0  1.38 0.16 0  1.41 0.16 0  1.44 0.16 0  1.47 0.16 0  1.5 0.16 0  0 0.18 0  0.03 0.18 0  0.06 0.18 0  0.09 0.18 0  0.12 0.18 0  0.15 0.18 0  0.18 0.18 0  0.21 0.18 0  0.24 0.18 0  0.27 0.18 0  0.3 0.18 0  0.33 0.18 0  0.36 0.18 0  0.39 0.18 0  0.42 0.18 0  0.45 0.18 0  0.48 0.18 0  0.51 0.18 0  0.54 0.18 0  0.57 0.18 0  0.6 0.18 0  0.63 0.18 0  0.66 0.18 0  0.6899999999999999 0.18 0  0.72 0.18 0  0.75 0.18 0  0.78 0.18 0  0.8100000000000001 0.18 0  0.84 0.18 0  0.87 0.18 0  0.9 0.18 0  0.93 0.18 0  0.96 0.18 0  0.99 0.18 0  1.02 0.18 0  1.05 0.18 0  1.08 0.18 0  1.11 0.18 0  1.14 0.18 0  1.17 0.18 0  1.2 0.18 0  1.23 0.18 0  1.26 0.18 0  1.29 0.18 0  1.32 0.18 0  1.35 0.18 0  1.38 0.18 0  1.41 0.18 0  1.44 0.18 0  1.47 0.18 0  1.5 0.18 0  0 0.2 0  0.03 0.2 0  0.06 0.2 0  0.09 0.2 0  0.12 0.2 0  0.15 0.2 0  0.18 0.2 0  0.21 0.2 0  0.24 0.2 0  0.27 0.2 0  0.3 0.2 0  0.33 0.2 0  0.36 0.2 0  0.39 0.2 0  0.42 0.2 0  0.45 0.2 0  0.48 0.2 0  0.51 0.2 0  0.54 0.2 0  0.57 0.2 0  0.6 0.2 0  0.63 0.2 0  0.66 0.2 0  0.6899999999999999 0.2 0  0.72 0.2 0  0.75 0.2 0  0.78 0.2 0  0.8100000000000001 0.2 0  0.84 0.2 0  0.87 0.2 0  0.9 0.2 0  0.93 0.2 0  0.96 0.2 0  0.99 0.2 0  1.02 0.2 0  1.05 0.2 0  1.08 0.2 0  1.11 0.2 0  1.14 0.2 0  1.17 0.2 0  1.2 0.2 0  1.23 0.2 0  1.26 0.2 0  1.29 0.2 0  1.32 0.2 0  1.35 0.2 0  1.38 0.2 0  1.41 0.2 0  1.44 0.2 0  1.47 0.2 0  1.5 0.2 0  0 0.22 0  0.03 0.22 0  0.06 0.22 0  0.09 0.22 0  0.12 0.22 0  0.15 0.22 0  0.18 0.22 0  0.21 0.22 0  0.24 0.22 0  0.27 0.22 0  0.3 0.22 0  0.33 0.22 0  0.36 0.22 0  0.39 0.22 0  0.42 0.22 0  0.45 0.22 0  0.48 0.22 0  0.51 0.22 0  0.54 0.22 0  0.57 0.22 0  0.6 0.22 0  0.63 0.22 0  0.66 0.22 0  0.6899999999999999 0.22 0  0.72 0.22 0  0.75 0.22 0  0.78 0.22 0  0.8100000000000001 0.22 0  0.84 0.22 0  0.87 0.22 0  0.9 0.22 0  0.93 0.22 0  0.96 0.22 0  0.99 0.22 0  1.02 0.22 0  1.05 0.22 0  1.08 0.22 0  1.11 0.22 0  1.14 0.22 0  1.17 0.22 0  1.2 0.22 0  1.23 0.22 0  1.26 0.22 0  1.29 0.22 0  1.32 0.22 0  1.35 0.22 0  1.38 0.22 0  1.41 0.22 0  1.44 0.22 0  1.47 0.22 0  1.5 0.22 0  0 0.24 0  0.03 0.24 0  0.06 0.24 0  0.09 0.24 0  0.12 0.24 0  0.15 0.24 0  0.18 0.24 0  0.21 0.24 0  0.24 0.24 0  0.27 0.24 0  0.3 0.24 0  0.33 0.24 0  0.36 0.24 0  0.39 0.24 0  0.42 0.24 0  0.45 0.24 0  0.48 0.24 0  0.51 0.24 0  0.54 0.24 0  0.57 0.24 0  0.6 0.24 0  0.63 0.24 0  0.66 0.24 0  0.6899999999999999 0.24 0  0.72 0.24 0  0.75 0.24 0  0.78 0.24 0  0.8100000000000001 0.24 0  0.84 0.24 0  0.87 0.24 0  0.9 0.24 0  0.93 0.24 0  0.96 0.24 0  0.99 0.24 0  1.02 0.24 0  1.05 0.24 0  1.08 0.24 0  1.11 0.24 0  1.14 0.24 0  1.17 0.24 0  1.2 0.24 0  1.23 0.24 0  1.26 0.24 0  1.29 0.24 0  1.32 0.24 0  1.35 0.24 0  1.38 0.24 0  1.41 0.24 0  1.44 0.24 0  1.47 0.24 0  1.5 0.24 0  0 0.26 0  0.03 0.26 0  0.06 0.26 0  0.09 0.26 0  0.12 0.26 0  0.15 0.26 0  0.18 0.26 0  0.21 0.26 0  0.24 0.26 0  0.27 0.26 0  0.3 0.26 0  0.33 0.26 0  0.36 0.26 0  0.39 0.26 0  0.42 0.26 0  0.45 0.26 0  0.48 0.26 0  0.51 0.26 0  0.54 0.26 0  0.57 0.26 0  0.6 0.26 0  0.63 0.26 0  0.66 0.26 0  0.6899999999999999 0.26 0  0.72 0.26 0  0.75 0.26 0  0.78 0.26 0  0.8100000000000001 0.26 0  0.84 0.26 0  0.87 0.26 0  0.9 0.26 0  0.93 0.26 0  0.96 0.26 0  0.99 0.26 0  1.02 0.26 0  1.05 0.26 0  1.08 0.26 0  1.11 0.26 0  1.14 0.26 0  1.17 0.26 0  1.2 0.26 0  1.23 0.26 0  1.26 0.26 0  1.29 0.26 0  1.32 0.26 0  1.35 0.26 0  1.38 0.26 0  1.41 0.26 0  1.44 0.26 0  1.47 0.26 0  1.5 0.26 0  0 0.28 0  0.03 0.28 0  0.06 0.28 0  0.09 0.28 0  0.12 0.28 0  0.15 0.28 0  0.18 0.28 0  0.21 0.28 0  0.24 0.28 0  0.27 0.28 0  0.3 0.28 0  0.33 0.28 0  0.36 0.28 0  0.39 0.28 0  0.42 0.28 0  0.45 0.28 0  0.48 0.28 0  0.51 0.28 0  0.54 0.28 0  0.57 0.28 0  0.6 0.28 0  0.63 0.28 0  0.66 0.28 0  0.6899999999999999 0.28 0  0.72 0.28 0  0.75 0.28 0  0.78 0.28 0  0.8100000000000001 0.28 0  0.84 0.28 0  0.87 0.28 0  0.9 0.28 0  0.93 0.28 0  0.96 0.28 0  0.99 0.28 0  1.02 0.28
[...]
<PointData  Scalars="sensitivity"> 
<DataArray  type="Float64"  Name="sensitivity"  format="ascii">-1.3003730265548911e-06  -1.8498619418091409e-05  -7.6850854271853694e-05  -1.9510746696895350e-04  -3.7332347128107228e-04  -5.8884639636484965e-04  -8.0994786300057713e-04  -1.0099529004263927e-03  -1.1732340237373905e-03  -1.2944749778878439e-03  -1.3750446433744184e-03  -1.4197924443222995e-03  -1.4351372363289102e-03  -1.4279147977350694e-03  -1.4046118528828809e-03  -1.3709278312866479e-03  -1.3316057874607414e-03  -1.2904251809232033e-03  -1.2502724716847750e-03  -1.2132490717213882e-03  -1.1808007906879429e-03  -1.1538591632087372e-03  -1.1329823217965382e-03  -1.1184799906081139e-03  -1.1105098638878321e-03  -1.1091406656899198e-03  -1.1143846329369424e-03  -1.1262039328045126e-03  -1.1444916205831399e-03  -1.1690227884989586e-03  -1.1993713791003118e-03  -1.2347946375940368e-03  -1.2740952092525405e-03  -1.3154726921902288e-03  -1.3563745980837520e-03  -1.3933631315459875e-03  -1.4220323326016551e-03  -1.4370180025821335e-03  -1.4321354812433500e-03  -1.4007002216971304e-03  -1.3360186928329713e-03  -1.2322485389028744e-03  -1.0861393126761561e-03  -9.0015860595654099e-04  -6.8579755841806681e-04  -4.6469524749556191e-04  -2.6656193105915931e-04  -1.2052106618502920e-04  -3.8141743134933147e-05  -5.4657167520073970e-06  -5.1240793770304798e-08  -9.4035984644323481e-06  -7.6070974378520423e-05  -3.0227218063639839e-04  -7.9242254991814247e-04  -1.5645662445943184e-03  -2.5305181319390242e-03  -3.5487396372333841e-03  -4.4904417305388919e-03  -5.2741427749067472e-03  -5.8675690156649047e-03  -6.2720916238764935e-03  -6.5072055422843176e-03  -6.6011045302729393e-03  -6.5849953791524982e-03  -6.4891740262146332e-03  -6.3406524254077511e-03  -6.1621547472083763e-03  -5.9719657158079364e-03  -5.7841903665718829e-03  -5.6092087929224162e-03  -5.4542444862375325e-03  -5.3240045625249635e-03  -5.2213390697346601e-03  -5.1478453316182518e-03  -5.1043481765904470e-03  -5.0912239438166652e-03  -5.1085774947448367e-03  -5.1562970652478182e-03  -5.2339959803093918e-03  -5.3408226482131614e-03  -5.4751116704315830e-03  -5.6338764339653484e-03  -5.8121868467611382e-03  -6.0024933114610716e-03  -6.1939417238546747e-03  -6.3717316391775029e-03  -6.5166639692312567e-03  -6.6050796732928258e-03  -6.6094184954245154e-03  -6.4994984306278800e-03  -6.2445075186922461e-03  -5.8163412859522645e-03  -5.1960461155038844e-03  -4.3866369528704477e-03  -3.4295087198374305e-03  -2.4121407550444182e-03  -1.4614131229979200e-03  -7.1690969031563284e-04  -2.6227860703295180e-04  -6.2654456724789282e-05  -3.5992227259635812e-06  -2.7142812350612592e-05  -1.4800059970362771e-04  -4.3961688969858459e-04  -1.0564079038098166e-03  -1.9987971362300638e-03  -3.1452790891267376e-03  -4.3315119788017572e-03  -5.4134662842126625e-03  -6.3036365856122892e-03  -6.9716441356835251e-03  -7.4221969780293101e-03  -7.6778336897510829e-03  -7.7708253503067813e-03  -7.7374174327921232e-03  -7.6128858116189810e-03  -7.4285793812611861e-03  -7.2108338776151974e-03  -6.9808648264594641e-03  -6.7550541383320766e-03  -6.5454310317699478e-03  -6.3602955966619744e-03  -6.2049595058238267e-03  -6.0825457744825727e-03  -5.9947389684629057e-03  -5.9423758337189105e-03  -5.9258285995157202e-03  -5.9452043853709998e-03  -6.0004089965778086e-03  -6.0910935952043083e-03  -6.2164509744585296e-03  -6.3748070614528130e-03  -6.5629999070781009e-03  -6.7756198779476773e-03  -7.0042177134842561e-03  -7.2365137418085503e-03  -7.4556185388749974e-03  -7.6394730955828046e-03  -7.7607898189464121e-03  -7.7878135062892087e-03  -7.6856156271134547e-03  -7.4190780421707183e-03  -6.9556838894711997e-03  -6.2702941012522401e-03  -5.3586677528843713e-03  -4.2624655776201982e-03  -3.0773444103363540e-03  -1.9362443157191313e-03  -9.9971844598997620e-04  -4.0081295179832566e-04  -1.3164151226101190e-04  -1.6397337287598678e-05  -4.4502855697200436e-05  -2.5092567409449289e-04  -6.5386587124518863e-04  -1.4120116304439645e-03  -2.4570782636784247e-03  -3.6420612098671422e-03  -4.8218604732619946e-03  -5.8634083630952566e-03  -6.6955165552921277e-03  -7.3064368682530679e-03  -7.7069096203950379e-03  -7.9180528288557411e-03  -7.9712094883147237e-03  -7.9028797579971787e-03  -7.7483721670796131e-03  -7.5386117167842341e-03  -7.2994516275508231e-03  -7.0517588355557903e-03  -6.8116560329417415e-03  -6.5909007699946273e-03  -6.3974309121333462e-03  -6.2360962812307227e-03  -6.1095314350148276e-03  -6.0190079524097698e-03  -5.9650848593860916e-03  -5.9479888573015513e-03  -5.9677828180207089e-03  -6.0244177488140644e-03  -6.1177052155751170e-03  -6.2471497568664641e-03  -6.4115290896370235e-03  -6.6081912807667452e-03  -6.8322019691791870e-03  -7.0755387536065011e-03  -7.3263304350086956e-03  -7.5680562654513901e-03  -7.7788806017785187e-03  -7.9315652264748612e-03  -7.9943765657112080e-03  -7.9325895438360459e-03  -7.7141511808970177e-03  -7.3067888356061943e-03  -6.6819897105209695e-03  -5.8212949914092718e-03  -4.7574695875001920e-03  -3.5820262512673870e-03  -2.3990286869361756e-03  -1.3401958589814712e-03  -5.8329584242632852e-04  -2.1362027788791974e-04  -3.4380191526730706e-05  -4.1652242708632293e-05  -3.7750883724436024e-04  -1.0755186587250623e-03  -2.1250755180994862e-03  -3.2772792708903038e-03  -4.4349172209722952e-03  -5.5524555715877602e-03  -6.4862131984615625e-03  -7.1974770489710077e-03  -7.7081974283569896e-03  -8.0276789307074971e-03  -8.1684967939024133e-03  -8.1601213022731555e-03  -8.0398531059231015e-03  -7.8425422950433275e-03  -7.5977071697684480e-03  -7.3299636822140362e-03  -7.0593604218775023e-03  -6.8014349749898426e-03  -6.5673997631965448e-03  -6.3645360223103130e-03  -6.1968858804405131e-03  -6.0662503800316707e-03  -5.9732260708544975e-03  -5.9179485719711832e-03  -5.9004409310902950e-03  -5.9207043784620496e-03  -5.9787395730337848e-03  -6.0745730075204892e-03  -6.2081805997074241e-03  -6.3790719653545724e-03  -6.5854405136251291e-03  -6.8231252304750767e-03  -7.0847916774653243e-03  -7.3593732937069483e-03  -7.6312503555840796e-03  -7.8790310133351193e-03  -8.0757941749954078e-03  -8.1904966264294051e-03  -8.1901839991475166e-03  -8.0447626935877849e-03  -7.7241927119510220e-03  -7.2128286972352037e-03  -6.4658671057109974e-03  -5.4903709031777822e-03  -4.3939728714061307e-03  -3.2602871739376587e-03  -2.0660655104132318e-03  -9.6711980719363193e-04  -2.8283277527076930e-04  -4.1155451481560845e-05  -4.5102354204915286e-05  -7.0935059240981020e-04  -2.6531900589307211e-03  -4.9719235496518037e-03  -5.9912254726969183e-03  -6.3879454524309884e-03  -6.8952864163245231e-03  -7.4142805700061383e-03  -7.8705347731808338e-03  -8.2329786228462435e-03  -8.4465374380693226e-03  -8.4927353950154869e-03  -8.4008323064451596e-03  -8.2113297002148634e-03  -7.9578826263649489e-03  -7.6672362271495301e-03  -7.3621464069968832e-03  -7.0616534954771456e-03  -6.7805974682210030e-03  -6.5295445987615273e-03  -6.3149232116612207e-03  -6.1396094954451943e-03  -6.0041604770774207e-03  -5.9082032798884977e-03  -5.8513280248235298e-03  -5.8333380419221701e-03  -5.8541724533791696e-03  -5.9138606631190735e-03  -6.0126527670380505e-03  -6.1511469981908023e-03  -6.3299310353822037e-03  -6.5484547703275270e-03  -6.8035983764123415e-03  -7.0888318731786000e-03  -7.3942757697550085e-03  -7.7055656192123690e-03  -8.0018995080792868e-03  -8.2577296039547977e-03  -8.4419923429040165e-03  -8.5219572061942007e-03  -8.4616221817347265e-03  -8.2893786475433297e-03  -8.0095148909927333e-03  -7.5989248097337774e-03  -7.1304636575789731e-03  -6.8351162658170980e-03  -6.3486536131490117e-03  -4.3873685629542596e-03  -1.9044979022136423e-03  -3.9029820248227896e-04  -2.7668360343525746e-05  -5.7531535784834586e-04  -3.0608599257852718e-03  -1.0789386618353308e-02  -1.9555153376702560e-02  -2.2159103386603145e-02  -1.8274104905402207e-02  -1.3323894782602094e-02  -1.0037041630249590e-02  -8.9474847569640976e-03  -8.9252665368983446e-03  -8.9781667627531064e-03  -8.8959921560760220e-03  -8.6946269971618310e-03  -8.4181867665196353e-03  -8.0959375890610231e-03  -7.7489535717727839e-03  -7.3976970259763460e-03  -7.0602578488319825e-03  -6.7507228358389100e-03  -6.4790261316747602e-03  -6.2506115559054524e-03  -6.0667124739251831e-03  -5.9260449263060545e-03  -5.8268917744831502e-03  -5.7682219477334790e-03  -5.7496832138759866e-03  -5.7711845769131869e-03  -5.8327169926316253e-03  -5.9346650074579600e-03  -6.0783653152668409e-03  -6.2659829217477491e-03  -6.4988357398229318e-03  -6.7751647174984176e-03  -7.0890689716146859e-03  -7.4320570578032029e-03  -7.7920191501433863e-03  -8.1505517505842777e-03  -8.4808990400550947e-03  -8.7485307465933488e-03  -8.9367049438318583e-03  -9.0099045145630857e-03  -9.1555871226523724e-03  -9.5846813596221301e-03  -1.0910521589054631e-02  -1.3626337855424470e-02  -1.7980396582509790e-02  -2.2127302910619078e-02  -2.0076812671337176e-02  -1.1807013310938674e-02  -2.5015855732445341e-03  -9.2497731776167269e-05  -1.7939255855462096e-03  -1.8639180337436133e-02  -3.1995112158231247e-02  -3.2198518323599247e-02  -3.2267577203250714e-02  -3.1899825799763935e-02  -3.1059338935031919e-02  -2.4415213523735366e-02  -1.4211309237719277e-02  -1.0504551390317500e-02  -9.7212747810477458e-03  -9.3910914941151367e-03  -9.0373949173904785e-03  -8.6564180408369353e-03  -8.2544258983763621e-03  -7.8407413980441480e-03  -7.4343630990366472e-03  -7.0529244177750250e-03  -6.7095420214417145e-03  -6.4137715844484675e-03  -6.1701277163706833e-03  -5.9774873620529294e-03  -5.8317583734793805e-03  -5.7293838511620334e-03  -5.6687617867898742e-03  -5.6496103682755865e-03  -5.6719013859953633e-03  -5.7354402348525129e-03  -5.8404533715492373e-03  -5.9890122522128081e-03  -6.1856390209977258e-03  -6.4345166516832988e-03  -6.7357448670035064e-03  -7.0830885771094726e-03  -7.4693946786112053e-03  -7.8886820506488872e-03  -8.3239522750563760e-03  -8.7380265587071789e-03  -9.1266943138174263e-03  -9.5099565364055137e-03  -9.9124355055692833e-03  -1.1479217181888695e-02  -1.5167915501920412e-02  -2.2977060056706487e-02  -2.9965117196006339e-02  -3.2174655738957975e-02  -3.2535322957756671e-02  -3.2100172624624369e-02  -3.1660285092521036e-02  -1.8936176192397746e-02  -1.7001706130995639e-03  -9.3537368630098958e-03  -3.1504552450918731e-02  -3.1457026805311795e-02  -3.1530218372408214e-02  -3.1610257450979076e-02  -3.1674906458174112e-02  -3.1830618813174151e-02  -3.2255343816205116e-02  -2.9991083771286082e-02  -1.9091348759155326e-02  -1.2104926169440047e-02  -1.0134570609629599e-02  -9.4392710859439177e-03  -8.9229659843291925e-03  -8.4325252193719787e-03  -7.9402429973061215e-03  -7.4693184297629760e-03  -7.0369461478750183e-03  -6.6540802894433969e-03  -6.3308454981061187e-03  -6.0714089862477384e-03  -5.8710728335965795e-03  -5.7212108888427858e-03  -5.6157790942999736e-03  -5.5529732620945111e-03  -5.5331064566178983e-03  -5.5563961636716031e-03  -5.6222161711765349e-03  -5.7299615507046186e-03  -5.8820452001504793e-03  -6.0865613482209511e-03  -6.3525621468426986e-03  -6.6829474388570035e-03  -7.0689025956080275e-03  -7.5022345706377168e-03  -7.9913896192122368e-03  -8.5170201493536424e-03  -9.0561603502943080e-03  -9.6619135911512263e-03  -1.0627597593278332e-02  -1.2965808948441704e-02  -1.9023382136806554e-02  -3.0641827835528591e-02  -3.2573920833753649e-02  -3.1564331938105282e-02  -3.1405740646223756e-02  -3.1626955729838750e-02  -3.1597620398022538e-02  -3.1538156320223117e-02  -3.1624217879442126e-02  -7.0989296502965748e-03  -1.5740594078162400e-02  -3.1486365588917493e-02  -3.1501427757186166e-02  -3.1488902037083162e-02  -3.1485654134093426e-02  -3.1447746979258284e-02  -3.1473303187604447e-02  -3.1730694762253271e-02  -3.1887682969998686e-02  -3.2203593459455622e-02  -2.4327434864787268e-02  -1.3626017392425131e-02  -1.0193599600820627e-02  -9.2623304813118212e-03  -8.6410975550160751e-03  -8.0455544980705326e-03  -7.4996796770030842e-03  -7.0099786847365652e-03  -6.5809090060547498e-03  -6.2263292543950416e-03  -5.9518785166190911e-03  -5.7468848313060716e-03  -5.5948440214276911e-03  -5.4864878622010640e-03  -5.4209436543910484e-03  -5.4001274975282098e-03  -5.4248181426535154e-03  -5.4936608098571814e-03  -5.6038205163577602e-03  -5.7565897782956808e-03  -5.9656070352336792e-03  -6.2495659843750566e-03  -6.6141991558708495e-03  -7.0469275609190453e-03  -7.5236523322760084e-03  -8.0984231400569925e-03  -8.7690625098001268e-03  -9.5686213706992623e-03  -1.1044073821340324e-02  -1.4614945117501402e-02  -2.2992924202574767e-02  -3.1549092282836484e-02  -3.1590584335406041e-02  -3.1517474669282751e-02  -3.1496187840904979e-02  -3.1449535714362063e-02  -3.1487948831576136e-02  -3.1506170244462527e-02  -3.1484277973875686e-02  -3.1502336106139242e-02  -1.5774036009219367e-02  -1.8374368567768723e-02  -3.1711803653472322e-02  -3.1510957734302153e-02  -3.1531792649938301e-02  -3.1502581139183562e-02  -3.1484164991066460e-02  -3.1436251380316076e-02  -3.1411338565519552e-02  -3.1515308821951506e-02  -3.1933667378683084e-02  -3.2489750202964240e-02  -2.8880800426549245e-02  -1.5364190978401554e-02  -1.0440460353404346e-02  -9.0083080792150907e-03  -8.1711046171695934e-03  -7.5291714519805627e-03  -6.9737261998372244e-03  -6.4874709185449818e-03  -6.0955377613242569e-03  -5.8088455830944538e-03  -5.6056687197880688e-03  -5.4545947177435878e-03  -5.3427689511296459e-03  -5.2731542750006251e-03  -5.2509238782984299e-03  -5.2778254975740643e-03  -5.3513902099591483e-03  -5.4644397349598124e-03  -5.6132436679052575e-03  -5.8191605446456752e-03  -6.1223140429674276e-03  -6.5270798007415346e-03  -7.0352908892916469e-03  -7.5453113136156186e-03  -8.2564502433563405e-03  -9.3367420442467437e-03  -1.1595597707635205e-02  -1.6100168675418674e-02  -2.6913400465524210e-02  -3.2980721114279563e-02  -3.1685265137619850e-02  -3.1379602985597520e-02  -3.1426074278956509e-02  -3.1464463165314607e-02  -3.1480275661283433e-02  -3.1516727883152164e-02  -3.1534077765858343e-02  -3.1501089805027985e-02  -3.1970490502653368e-02  -1.6688024178488896e-02  -2.8548379830138262e-02  -4.6200787584286328e-02  -3.5688726849358324e-02  -3.1530846825205176e-02  -3.1516675746462740e-02  -3.1507065203476077e-02  -3.1496548382985365e-02  -3.1447217641663673e-02  -3.1403311674991032e-02  -3.1474871388855907e-02  -3.1826637269133110e-02  -3.2002207258196448e-02  -3.0102816542758298e-02  -1.9048277926334768e-02  -1.1478605313408127e-02  -8.7096814875703820e-03  -7.6840758928738854e-03  -6.9814633808427074e-03  -6.3977977198639265e-03  -5.9481159141479261e-03  -5.6503559874431109e-03  -5.4594476220445479e-03  -5.3120312454116407e-03  -5.1933262389268018e-03  -5.1166202752525175e-03  -5.0922097886866614e-03  -5.1227745485225296e-03  -5.2048860017200266e-03  -5.3268222794078182e-03  -5.4677530344575597e-03  -5.6567928716275600e-03  -5.9909271670961807e-03  -6.4603150725702956e-03  -7.1409453260324815e-03  -7.7814914218037210e-03  -9.2607827386002387e-03  -1.2783367485007528e-02  -1.9120069769225728e-02  -3.0147490958256706e-02  -3.1672153419056839e-02  -3.1663642406582919e-02  -3.1531374404480700e-02  -3.1433732783395424e-02  -3.1468871778940886e-02  -3.1492432993251177e-02  -3.1510367423494862e-02  -3.1511302840487421e-02  -3.1531453491054413e-02  -3.7759055076744846e-02  -4.7972724789894401e-02  -2.5127371197410434e-02  -3.5091107810796413e-02  -6.0566803590630186e-02  -4.6052264021481472e-02  -3.5338644436238922e-02  -3.1517180981738543e-02  -3.1510338944765369e-02  -3.1510580643870550e-02  -3.1505443045420967e-02  -3.1470551103466041e-02  -3.1415531340770977e-02  -3.1420175230238975e-02  -3.1637003530938825e-02  -3.1940222939421038e-02  -3.2553875868876918e-02  -2.6117832348235403e-02  -1.5411855662322404e-02  -1.0304261429802786e-02  -7.9925211443052906e-03  -6.8409613030808369e-03  -6.1166138499290715e-03  -5.7060243592141130e-03  -5.4883092537978692e-03  -5.3148797640263194e-03  -5.1665771070041784e-03  -5.0723084243364039e-03  -5.0441860353541701e-03  -5.0836353625468194e-03  -5.1903480021555509e-03  -5.3570228636722079e-03  -5.5292768150986792e-03  -5.7560716885382999e-03  -6.2792814720876887e-03  -7.1119084629088078e-03  -8.8157821858596153e-03  -1.0961830485882141e-02  -1.5250390162813505e-02  -2.5069127755669600e-02  -3.3910128473518340e-02  -3.2092133944853302e-02  -3.1398529411566213e-02  -3.1435597659615143e-02  -3.1474725245680284e-02  -3.1492773007448412e-02  -3.1503247293255848e-02  -3.1502886761497650e-02  -3.1506670594918358e-02  -3.1526448645331454e-02  -3.6384737989002644e-02  -4.6479987596281261e-02  -6.0519671168883592e-02  -3.3678377302466846e-02  -3.4025315612040245e-02  -6.2931189146513924e-02  -5.0505573693950520e-02  -3.9890523368880632e-02  -3.2858925960140381e-02  -3.1503033484718855e-02  -3.1502460014978688e-02  -3.1512597616273064e-02  -3.1517332019458909e-02  -3.1485119566670432e-02  -3.1409769118583793e-02  -3.1367333177944899e-02  -3.1529411190900879e-02  -3.2096724039503893e-02  -3.2478688363067401e-02  -3.0494935790932817e-02  -2.7221875556721294e-02  -1.9463547637533996e-02  -1.4423384329387423e-02  -1.1529125420643759e-02  -1.0031199405675288e-02  -9.1462082185872658e-03  -8.4739877423369771e-03  -8.0363505819136295e-03  -7.8110919154875842e-03  -7.7573036482211592e-03  -7.8598719801547014e-03  -8.1432484139568485e-03  -8.6496406955721625e-03  -9.2283807263384126e-03  -1.0013116489716690e-02  -1.1824094800871369e-02  -1.4581260231858163e-02  -1.9188476782539338e-02  -2.6427922133194684e-02  -2.9267387953134886e-02  -3.1726139729839876e-02  -3.1845264561650440e-02  -3.1619933160661952e-02  -3.1433057208459250e-02  -3.1461520870739224e-02  -3.1511688995543477e-02  -3.1516728273729047e-02  -3.1506665302077366e-02  -3.1498269231369336e-02  -3.1505296427672101e-02  -3.3374262240165611e-02  -3.9820961596503071e-02  -4.9852074390181488e-02  -6.2159269987420038e-02  -3.5190258845023199e-02  -2.5795950257544286e-02  -5.2507106558080566e-02  -4.5964421540860632e-02  -3.9579406443163177e-02  -3.4301847048045994e-02  -3.1547189631268367e-02  -3.1495510723760903e-02  -3.1495255862828142e-02  -3.1516176061295170e-02  -3.1521971038674157e-02  -3.1489862397128358e-02  -3.1418456464771052e-02  -3.1374555580621695e-02  -3.1457372190307621e-02  -3.1702316926036013e-02  -3.1799128604368440e-02  -3.1907898509566351e-02  -3.2713486991713350e-02  -3.3009798735627649e-02  -3.0813402949358078e-02  -2.9944065047638715e-02  -3.0452836589377558e-02  -2.9791657086493475e-02  -2.8798161698661683e-02  -2.8180930668924766e-02  -2.7979632108228399e-02  -2.8153991246060817e-02  -2.8725837312266057e-02  -2.9691070357357085e-02  -3.0442869258660080e-02  -2.9979634930079380e-02  -3.0398439471666466e-02  -3.2887040995051138e-02  -3.3116029923693099e-02  -3.2760371941806983e-02  -3.1360417274683874e-02  -3.1249084027297768e-02  -3.1469779216395773e-02  -3.1455002859433402e-02  -3.1476592469918470e-02  -3.1515440660116113e-02  -3.1524919683752414e-02  -3.1511157785223808e-02  -3.1501978357272184e-02  -3.1491267578408651e-02  -3.1570997487277132e-02  -3.4175802395846638e-02  -3.8820382052551373e-02  -4.4813780035100635e-02  -5.1226050639261257e-02  -2.9066581497469855e-02  -1.6744871115085779e-02  -3.6229551693561964e-02  -3.5973403502298995e-02  -3.4778133939126876e-02  -3.3060443919846083e-02  -3.1637899746241802e-02  -3.1490344314106584e-02  -3.1486941269827547e-02  -3.1494564527980343e-02  -3.1515403512187914e-02  -3.1523235068314337e-02  -3.1500691341352138e-02  -3.1450314324439010e-02  -3.1396835270307302e-02  -3.1368060966321144e-02  -3.1396794187449305e-02  -3.1540764699656616e-02  -3.1801519458003864e-02  -3.2005063261184900e-02  -3.1867156370581330e-02  -3.1628850262644101e-02  -3.1814451663616967e-02  -3.2114337352208859e-02  -3.2141758168546398e-02  -3.2113641341523877e-02  -3.2123202255285102e-02  -3.2145116274154735e-02  -3.2154588081814220e-02  -3.2147023070984125e-02  -3.2051572599340591e-02  -3.1703651128034409e-02  -