<?xml version="1.0"?>
<VTKFile type="UnstructuredGrid"  version="0.1"  >
<UnstructuredGrid>
<Piece  NumberOfPoints="2601" NumberOfCells="5000">
<Points>
<DataArray  type="Float64"  NumberOfComponents="3"  format="ascii">0 0 0  0.03 0 0  0.06 0 0  0.09 0 0  0.12 0 0  0.15 0 0  0.18 0 0  0.21 0 0  0.24 0 0  0.27 0 0  0.3 0 0  0.33 0 0  0.36 0 0  0.39 0 0  0.42 0 0  0.45 0 0  0.48 0 0  0.51 0 0  0.54 0 0  0.57 0 0  0.6 0 0  0.63 0 0  0.66 0 0  0.6899999999999999 0 0  0.72 0 0  0.75 0 0  0.78 0 0  0.8100000000000001 0 0  0.84 0 0  0.87 0 0  0.9 0 0  0.93 0 0  0.96 0 0  0.99 0 0  1.02 0 0  1.05 0 0  1.08 0 0  1.11 0 0  1.14 0 0  1.17 0 0  1.2 0 0  1.23 0 0  1.26 0 0  1.29 0 0  1.32 0 0  1.35 0 0  1.38 0 0  1.41 0 0  1.44 0 0  1.47 0 0  1.5 0 0  0 0.02 0  0.03 0.02 0  0.06 0.02 0  0.09 0.02 0  0.12 0.02 0  0.15 0.02 0  0.18 0.02 0  0.21 0.02 0  0.24 0.02 0  0.27 0.02 0  0.3 0.02 0  0.33 0.02 0  0.36 0.02 0  0.39 0.02 0  0.42 0.02 0  0.45 0.02 0  0.48 0.02 0  0.51 0.02 0  0.54 0.02 0  0.57 0.02 0  0.6 0.02 0  0.63 0.02 0  0.66 0.02 0  0.6899999999999999 0.02 0  0.72 0.02 0  0.75 0.02 0  0.78 0.02 0  0.8100000000000001 0.02 0  0.84 0.02 0  0.87 0.02 0  0.9 0.02 0  0.93 0.02 0  0.96 0.02 0  0.99 0.02 0  1.02 0.02 0  1.05 0.02 0  1.08 0.02 0  1.11 0.02 0  1.14 0.02 0  1.17 0.02 0  1.2 0.02 0  1.23 0.02 0  1.26 0.02 0  1.29 0.02 0  1.32 0.02 0  1.35 0.02 0  1.38 0.02 0  1.41 0.02 0  1.44 0.02 0  1.47 0.02 0  1.5 0.02 0  0 0.04 0  0.03 0.04 0  0.06 0.04 0  0.09 0.04 0  0.12 0.04 0  0.15 0.04 0  0.18 0.04 0  0.21 0.04 0  0.24 0.04 0  0.27 0.04 0  0.3 0.04 0  0.33 0.04 0  0.36 0.04 0  0.39 0.04 0  0.42 0.04 0  0.45 0.04 0  0.48 0.04 0  0.51 0.04 0  0.54 0.04 0  0.57 0.04 0  0.6 0.04 0  0.63 0.04 0  0.66 0.04 0  0.6899999999999999 0.04 0  0.72 0.04 0  0.75 0.04 0  0.78 0.04 0  0.8100000000000001 0.04 0  0.84 0.04 0  0.87 0.04 0  0.9 0.04 0  0.93 0.04 0  0.96 0.04 0  0.99 0.04 0  1.02 0.04 0  1.05 0.04 0  1.08 0.04 0  1.11 0.04 0  1.14 0.04 0  1.17 0.04 0  1.2 0.04 0  1.23 0.04 0  1.26 0.04 0  1.29 0.04 0  1.32 0.04 0  1.35 0.04 0  1.38 0.04 0  1.41 0.04 0  1.44 0.04 0  1.47 0.04 0  1.5 0.04 0  0 0.06 0  0.03 0.06 0  0.06 0.06 0  0.09 0.06 0  0.12 0.06 0  0.15 0.06 0  0.18 0.06 0  0.21 0.06 0  0.24 0.06 0  0.27 0.06 0  0.3 0.06 0  0.33 0.06 0  0.36 0.06 0  0.39 0.06 0  0.42 0.06 0  0.45 0.06 0  0.48 0.06 0  0.51 0.06 0  0.54 0.06 0  0.57 0.06 0  0.6 0.06 0  0.63 0.06 0  0.66 0.06 0  0.6899999999999999 0.06 0  0.72 0.06 0  0.75 0.06 0  0.78 0.06 0  0.8100000000000001 0.06 0  0.84 0.06 0  0.87 0.06 0  0.9 0.06 0  0.93 0.06 0  0.96 0.06 0  0.99 0.06 0  1.02 0.06 0  1.05 0.06 0  1.08 0.06 0  1.11 0.06 0  1.14 0.06 0  1.17 0.06 0  1.2 0.06 0  1.23 0.06 0  1.26 0.06 0  1.29 0.06 0  1.32 0.06 0  1.35 0.06 0  1.38 0.06 0  1.41 0.06 0  1.44 0.06 0  1.47 0.06 0  1.5 0.06 0  0 0.08 0  0.03 0.08 0  0.06 0.08 0  0.09 0.08 0  0.12 0.08 0  0.15 0.08 0  0.18 0.08 0  0.21 0.08 0  0.24 0.08 0  0.27 0.08 0  0.3 0.08 0  0.33 0.08 0  0.36 0.08 0  0.39 0.08 0  0.42 0.08 0  0.45 0.08 0  0.48 0.08 0  0.51 0.08 0  0.54 0.08 0  0.57 0.08 0  0.6 0.08 0  0.63 0.08 0  0.66 0.08 0  0.6899999999999999 0.08 0  0.72 0.08 0  0.75 0.08 0  0.78 0.08 0  0.8100000000000001 0.08 0  0.84 0.08 0  0.87 0.08 0  0.9 0.08 0  0.93 0.08 0  0.96 0.08 0  0.99 0.08 0  1.02 0.08 0  1.05 0.08 0  1.08 0.08 0  1.11 0.08 0  1.14 0.08 0  1.17 0.08 0  1.2 0.08 0  1.23 0.08 0  1.26 0.08 0  1.29 0.08 0  1.32 0.08 0  1.35 0.08 0  1.38 0.08 0  1.41 0.08 0  1.44 0.08 0  1.47 0.08 0  1.5 0.08 0  0 0.1 0  0.03 0.1 0  0.06 0.1 0  0.09 0.1 0  0.12 0.1 0  0.15 0.1 0  0.18 0.1 0  0.21 0.1 0  0.24 0.1 0  0.27 0.1 0  0.3 0.1 0  0.33 0.1 0  0.36 0.1 0  0.39 0.1 0  0.42 0.1 0  0.45 0.1 0  0.48 0.1 0  0.51 0.1 0  0.54 0.1 0  0.57 0.1 0  0.6 0.1 0  0.63 0.1 0  0.66 0.1 0  0.6899999999999999 0.1 0  0.72 0.1 0  0.75 0.1 0  0.78 0.1 0  0.8100000000000001 0.1 0  0.84 0.1 0  0.87 0.1 0  0.9 0.1 0  0.93 0.1 0  0.96 0.1 0  0.99 0.1 0  1.02 0.1 0  1.05 0.1 0  1.08 0.1 0  1.11 0.1 0  1.14 0.1 0  1.17 0.1 0  1.2 0.1 0  1.23 0.1 0  1.26 0.1 0  1.29 0.1 0  1.32 0.1 0  1.35 0.1 0  1.38 0.1 0  1.41 0.1 0  1.44 0.1 0  1.47 0.1 0  1.5 0.1 0  0 0.12 0  0.03 0.12 0  0.06 0.12 0  0.09 0.12 0  0.12 0.12 0  0.15 0.12 0  0.18 0.12 0  0.21 0.12 0  0.24 0.12 0  0.27 0.12 0  0.3 0.12 0  0.33 0.12 0  0.36 0.12 0  0.39 0.12 0  0.42 0.12 0  0.45 0.12 0  0.48 0.12 0  0.51 0.12 0  0.54 0.12 0  0.57 0.12 0  0.6 0.12 0  0.63 0.12 0  0.66 0.12 0  0.6899999999999999 0.12 0  0.72 0.12 0  0.75 0.12 0  0.78 0.12 0  0.8100000000000001 0.12 0  0.84 0.12 0  0.87 0.12 0  0.9 0.12 0  0.93 0.12 0  0.96 0.12 0  0.99 0.12 0  1.02 0.12 0  1.05 0.12 0  1.08 0.12 0  1.11 0.12 0  1.14 0.12 0  1.17 0.12 0  1.2 0.12 0  1.23 0.12 0  1.26 0.12 0  1.29 0.12 0  1.32 0.12 0  1.35 0.12 0  1.38 0.12 0  1.41 0.12 0  1.44 0.12 0  1.47 0.12 0  1.5 0.12 0  0 0.14 0  0.03 0.14 0  0.06 0.14 0  0.09 0.14 0  0.12 0.14 0  0.15 0.14 0  0.18 0.14 0  0.21 0.14 0  0.24 0.14 0  0.27 0.14 0  0.3 0.14 0  0.33 0.14 0  0.36 0.14 0  0.39 0.14 0  0.42 0.14 0  0.45 0.14 0  0.48 0.14 0  0.51 0.14 0  0.54 0.14 0  0.57 0.14 0  0.6 0.14 0  0.63 0.14 0  0.66 0.14 0  0.6899999999999999 0.14 0  0.72 0.14 0  0.75 0.14 0  0.78 0.14 0  0.8100000000000001 0.14 0  0.84 0.14 0  0.87 0.14 0  0.9 0.14 0  0.93 0.14 0  0.96 0.14 0  0.99 0.14 0  1.02 0.14 0  1.05 0.14 0  1.08 0.14 0  1.11 0.14 0  1.14 0.14 0  1.17 0.14 0  1.2 0.14 0  1.23 0.14 0  1.26 0.14 0  1.29 0.14 0  1.32 0.14 0  1.35 0.14 0  1.38 0.14 0  1.41 0.14 0  1.44 0.14 0  1.47 0.14 0  1.5 0.14 0  0 0.16 0  0.03 0.16 0  0.06 0.16 0  0.09 0.16 0  0.12 0.16 0  0.15 0.16 0  0.18 0.16 0  0.21 0.16 0  0.24 0.16 0  0.27 0.16 0  0.3 0.16 0  0.33 0.16 0  0.36 0.16 0  0.39 0.16 0  0.42 0.16 0  0.45 0.16 0  0.48 0.16 0  0.51 0.16 0  0.54 0.16 0  0.57 0.16 0  0.6 0.16 0  0.63 0.16 0  0.66 0.16 0  0.6899999999999999 0.16 0  0.72 0.16 0  0.75 0.16 0  0.78 0.16 0  0.8100000000000001 0.16 0  0.84 0.16 0  0.87 0.16 0  0.9 0.16 0  0.93 0.16 0  0.96 0.16 0  0.99 0.16 0  1.02 0.16 0  1.05 0.16 0  1.08 0.16 0  1.11 0.16 0  1.14 0.16 0  1.17 0.16 0  1.2 0.16 0  1.23 0.16 0  1.26 0.16 0  1.29 0.16 0  1.32 0.16 0  1.35 0.16 0  1.38 0.16 0  1.41 0.16 0  1.44 0.16 0  1.47 0.16 0  1.5 0.16 0  0 0.18 0  0.03 0.18 0  0.06 0.18 0  0.09 0.18 0  0.12 0.18 0  0.15 0.18 0  0.18 0.18 0  0.21 0.18 0  0.24 0.18 0  0.27 0.18 0  0.3 0.18 0  0.33 0.18 0  0.36 0.18 0  0.39 0.18 0  0.42 0.18 0  0.45 0.18 0  0.48 0.18 0  0.51 0.18 0  0.54 0.18 0  0.57 0.18 0  0.6 0.18 0  0.63 0.18 0  0.66 0.18 0  0.6899999999999999 0.18 0  0.72 0.18 0  0.75 0.18 0  0.78 0.18 0  0.8100000000000001 0.18 0  0.84 0.18 0  0.87 0.18 0  0.9 0.18 0  0.93 0.18 0  0.96 0.18 0  0.99 0.18 0  1.02 0.18 0  1.05 0.18 0  1.08 0.18 0  1.11 0.18 0  1.14 0.18 0  1.17 0.18 0  1.2 0.18 0  1.23 0.18 0  1.26 0.18 0  1.29 0.18 0  1.32 0.18 0  1.35 0.18 0  1.38 0.18 0  1.41 0.18 0  1.44 0.18 0  1.47 0.18 0  1.5 0.18 0  0 0.2 0  0.03 0.2 0  0.06 0.2 0  0.09 0.2 0  0.12 0.2 0  0.15 0.2 0  0.18 0.2 0  0.21 0.2 0  0.24 0.2 0  0.27 0.2 0  0.3 0.2 0  0.33 0.2 0  0.36 0.2 0  0.39 0.2 0  0.42 0.2 0  0.45 0.2 0  0.48 0.2 0  0.51 0.2 0  0.54 0.2 0  0.57 0.2 0  0.6 0.2 0  0.63 0.2 0  0.66 0.2 0  0.6899999999999999 0.2 0  0.72 0.2 0  0.75 0.2 0  0.78 0.2 0  0.8100000000000001 0.2 0  0.84 0.2 0  0.87 0.2 0  0.9 0.2 0  0.93 0.2 0  0.96 0.2 0  0.99 0.2 0  1.02 0.2 0  1.05 0.2 0  1.08 0.2 0  1.11 0.2 0  1.14 0.2 0  1.17 0.2 0  1.2 0.2 0  1.23 0.2 0  1.26 0.2 0  1.29 0.2 0  1.32 0.2 0  1.35 0.2 0  1.38 0.2 0  1.41 0.2 0  1.44 0.2 0  1.47 0.2 0  1.5 0.2 0  0 0.22 0  0.03 0.22 0  0.06 0.22 0  0.09 0.22 0  0.12 0.22 0  0.15 0.22 0  0.18 0.22 0  0.21 0.22 0  0.24 0.22 0  0.27 0.22 0  0.3 0.22 0  0.33 0.22 0  0.36 0.22 0  0.39 0.22 0  0.42 0.22 0  0.45 0.22 0  0.48 0.22 0  0.51 0.22 0  0.54 0.22 0  0.57 0.22 0  0.6 0.22 0  0.63 0.22 0  0.66 0.22 0  0.6899999999999999 0.22 0  0.72 0.22 0  0.75 0.22 0  0.78 0.22 0  0.8100000000000001 0.22 0  0.84 0.22 0  0.87 0.22 0  0.9 0.22 0  0.93 0.22 0  0.96 0.22 0  0.99 0.22 0  1.02 0.22 0  1.05 0.22 0  1.08 0.22 0  1.11 0.22 0  1.14 0.22 0  1.17 0.22 0  1.2 0.22 0  1.23 0.22 0  1.26 0.22 0  1.29 0.22 0  1.32 0.22 0  1.35 0.22 0  1.38 0.22 0  1.41 0.22 0  1.44 0.22 0  1.47 0.22 0  1.5 0.22 0  0 0.24 0  0.03 0.24 0  0.06 0.24 0  0.09 0.24 0  0.12 0.24 0  0.15 0.24 0  0.18 0.24 0  0.21 0.24 0  0.24 0.24 0  0.27 0.24 0  0.3 0.24 0  0.33 0.24 0  0.36 0.24 0  0.39 0.24 0  0.42 0.24 0  0.45 0.24 0  0.48 0.24 0  0.51 0.24 0  0.54 0.24 0  0.57 0.24 0  0.6 0.24 0  0.63 0.24 0  0.66 0.24 0  0.6899999999999999 0.24 0  0.72 0.24 0  0.75 0.24 0  0.78 0.24 0  0.8100000000000001 0.24 0  0.84 0.24 0  0.87 0.24 0  0.9 0.24 0  0.93 0.24 0  0.96 0.24 0  0.99 0.24 0  1.02 0.24 0  1.05 0.24 0  1.08 0.24 0  1.11 0.24 0  1.14 0.24 0  1.17 0.24 0  1.2 0.24 0  1.23 0.24 0  1.26 0.24 0  1.29 0.24 0  1.32 0.24 0  1.35 0.24 0  1.38 0.24 0  1.41 0.24 0  1.44 0.24 0  1.47 0.24 0  1.5 0.24 0  0 0.26 0  0.03 0.26 0  0.06 0.26 0  0.09 0.26 0  0.12 0.26 0  0.15 0.26 0  0.18 0.26 0  0.21 0.26 0  0.24 0.26 0  0.27 0.26 0  0.3 0.26 0  0.33 0.26 0  0.36 0.26 0  0.39 0.26 0  0.42 0.26 0  0.45 0.26 0  0.48 0.26 0  0.51 0.26 0  0.54 0.26 0  0.57 0.26 0  0.6 0.26 0  0.63 0.26 0  0.66 0.26 0  0.6899999999999999 0.26 0  0.72 0.26 0  0.75 0.26 0  0.78 0.26 0  0.8100000000000001 0.26 0  0.84 0.26 0  0.87 0.26 0  0.9 0.26 0  0.93 0.26 0  0.96 0.26 0  0.99 0.26 0  1.02 0.26 0  1.05 0.26 0  1.08 0.26 0  1.11 0.26 0  1.14 0.26 0  1.17 0.26 0  1.2 0.26 0  1.23 0.26 0  1.26 0.26 0  1.29 0.26 0  1.32 0.26 0  1.35 0.26 0  1.38 0.26 0  1.41 0.26 0  1.44 0.26 0  1.47 0.26 0  1.5 0.26 0  0 0.28 0  0.03 0.28 0  0.06 0.28 0  0.09 0.28 0  0.12 0.28 0  0.15 0.28 0  0.18 0.28 0  0.21 0.28 0  0.24 0.28 0  0.27 0.28 0  0.3 0.28 0  0.33 0.28 0  0.36 0.28 0  0.39 0.28 0  0.42 0.28 0  0.45 0.28 0  0.48 0.28 0  0.51 0.28 0  0.54 0.28 0  0.57 0.28 0  0.6 0.28 0  0.63 0.28 0  0.66 0.28 0  0.6899999999999999 0.28 0  0.72 0.28 0  0.75 0.28 0  0.78 0.28 0  0.8100000000000001 0.28 0  0.84 0.28 0  0.87 0.28 0  0.9 0.28 0  0.93 0.28 0  0.96 0.28 0  0.99 0.28 0  1.02 0.28
[...]
<PointData  Scalars="sensitivity"> 
<DataArray  type="Float64"  Name="sensitivity"  format="ascii">-1.0211983719886268e-06  -1.5487874546610605e-05  -6.4549084686073348e-05  -1.6543248420907829e-04  -3.1951281998149382e-04  -5.0696168771542085e-04  -6.9933559355109991e-04  -8.7336949334836296e-04  -1.0158593196762905e-03  -1.1224045424269391e-03  -1.1945195467547762e-03  -1.2368784195456461e-03  -1.2551614334280199e-03  -1.2548119517312021e-03  -1.2406536000092172e-03  -1.2169307749848820e-03  -1.1873669716995401e-03  -1.1551253468405020e-03  -1.1227532814530089e-03  -1.0921959638744941e-03  -1.0648825819655800e-03  -1.0418379639194637e-03  -1.0237787670535673e-03  -1.0111826965935435e-03  -1.0043377669655127e-03  -1.0033790923388436e-03  -1.0083136785245834e-03  -1.0190296050562766e-03  -1.0352868942430085e-03  -1.0566889853375896e-03  -1.0826317835861338e-03  -1.1122246777260892e-03  -1.1441863725504063e-03  -1.1767450031578740e-03  -1.2075940419172555e-03  -1.2339235297511154e-03  -1.2524510110971958e-03  -1.2593207343644182e-03  -1.2498578593390344e-03  -1.2184756008471189e-03  -1.1592072259906066e-03  -1.0670121658159428e-03  -9.3944542746263995e-04  -7.7872043958110589e-04  -5.9377837490470298e-04  -4.0218797365928702e-04  -2.2985413122893149e-04  -1.0306480241439390e-04  -3.2339930534309719e-05  -4.4685397741934337e-06  -3.0900366941211122e-08  -7.9076314842034062e-06  -7.0062135490856755e-05  -2.8102839751732451e-04  -7.4354628367807819e-04  -1.4826515011854295e-03  -2.4137674328751153e-03  -3.3958846349822032e-03  -4.3039804370440067e-03  -5.0614366373715365e-03  -5.6379997507498836e-03  -6.0363472650759526e-03  -6.2779976629154539e-03  -6.3914905895303903e-03  -6.4049473496758215e-03  -6.3434308274384708e-03  -6.2290258656367246e-03  -6.0812468731538455e-03  -5.9168755826694433e-03  -5.7495910087549517e-03  -5.5899258816691699e-03  -5.4456528182016441e-03  -5.3223636776685975e-03  -5.2239935486195575e-03  -5.1532001481402667e-03  -5.1116302165745264e-03  -5.1001201737540663e-03  -5.1188397172830021e-03  -5.1673587430962897e-03  -5.2446204860358238e-03  -5.3488170977354157e-03  -5.4771586561818070e-03  -5.6255046210799513e-03  -5.7878453480719972e-03  -5.9557449880729063e-03  -6.1180187695134306e-03  -6.2608463024654334e-03  -6.3680574233189744e-03  -6.4208892921829522e-03  -6.3967938655111059e-03  -6.2683845081311146e-03  -6.0051347607885993e-03  -5.5796112423691932e-03  -4.9756294985137872e-03  -4.1982130466366912e-03  -3.2836266696726489e-03  -2.3088611377488455e-03  -1.3944365273523978e-03  -6.7888109928932057e-04  -2.4564894132008406e-04  -5.7289539073094811e-05  -2.9540403282470251e-06  -2.2528421491605095e-05  -1.3568177592140210e-04  -4.1506740420593774e-04  -1.0144404283284573e-03  -1.9469539927758185e-03  -3.0898553882747061e-03  -4.2711537160410118e-03  -5.3494918371443500e-03  -6.2411059257197719e-03  -6.9137278342528800e-03  -7.3726169004556339e-03  -7.6452396826574981e-03  -7.7666360438919287e-03  -7.7701265107077431e-03  -7.6848498040848635e-03  -7.5367228365403657e-03  -7.3491567224470422e-03  -7.1425681726011809e-03  -6.9335904084855873e-03  -6.7348971184253937e-03  -6.5557347561344594e-03  -6.4027227957226315e-03  -6.2805256070745455e-03  -6.1922957855242216e-03  -6.1399758591543689e-03  -6.1245427748032183e-03  -6.1461992532743110e-03  -6.2044690197075245e-03  -6.2981663127429722e-03  -6.4252455124641861e-03  -6.5825364556427223e-03  -6.7653189956530333e-03  -6.9666715162064819e-03  -7.1766897317464100e-03  -7.3819889139569552e-03  -7.5659240508028497e-03  -7.7093092293595124e-03  -7.7905100393600634e-03  -7.7837491706550469e-03  -7.6566994985021314e-03  -7.3716403012537264e-03  -6.8939520630362733e-03  -6.2018349811939879e-03  -5.2971359192412505e-03  -4.2190488790299630e-03  -3.0489375546591865e-03  -1.9147642012140292e-03  -9.8218717231228665e-04  -3.8813493555559989e-04  -1.2272473005454169e-04  -1.3902426659082605e-05  -3.6097415956519320e-05  -2.2662575776475605e-04  -6.1479481997639841e-04  -1.3591815469899916e-03  -2.4113907714967890e-03  -3.6063625810946369e-03  -4.7800497529668006e-03  -5.8188990046086023e-03  -6.6588667753740014e-03  -7.2765256296472257e-03  -7.6821773611286410e-03  -7.9077268376821462e-03  -7.9900944578585598e-03  -7.9612120636394310e-03  -7.8477717183265509e-03  -7.6742728992269388e-03  -7.4640301355719738e-03  -7.2378831165232577e-03  -7.0126585790515929e-03  -6.8008092468635865e-03  -6.6111695853935228e-03  -6.4500026153651501e-03  -6.3217411740684780e-03  -6.2293757333838837e-03  -6.1747025121692695e-03  -6.1585733971416057e-03  -6.1811281601354502e-03  -6.2419173336552931e-03  -6.3398636526301542e-03  -6.4730909815933369e-03  -6.6386709177707302e-03  -6.8322350786286503e-03  -7.0472808118465253e-03  -7.2741685339446898e-03  -7.4993812099513595e-03  -7.7058868619004767e-03  -7.8746096216145544e-03  -7.9852465891301662e-03  -8.0144648291519023e-03  -7.9313497838518730e-03  -7.6960813851225055e-03  -7.2697539815222241e-03  -6.6291819140541480e-03  -5.7685299449100960e-03  -4.7292661250489237e-03  -3.5712910806863082e-03  -2.3886598537079893e-03  -1.3256757044942090e-03  -5.6605337532340230e-04  -1.9624333734651872e-04  -2.8608149780430556e-05  -3.3302051305627011e-05  -3.4231957096813757e-04  -1.0193562597575216e-03  -2.0794827566670056e-03  -3.3010703442609198e-03  -4.4836435425329732e-03  -5.5518286160443821e-03  -6.4669793732459223e-03  -7.1929835115124435e-03  -7.7069997849122489e-03  -8.0192111106428248e-03  -8.1667733499076363e-03  -8.1884088008210044e-03  -8.1117771387144242e-03  -7.9582339885106244e-03  -7.7495637616642465e-03  -7.5088593470257411e-03  -7.2574992041656624e-03  -7.0123127370723716e-03  -6.7850354801670979e-03  -6.5835725420331425e-03  -6.4134877769889765e-03  -6.2788012975182822e-03  -6.1822204477899410e-03  -6.1252751426570540e-03  -6.1085841887519830e-03  -6.1321701286096673e-03  -6.1956349103099361e-03  -6.2980986750985754e-03  -6.4379717026209508e-03  -6.6127126813738876e-03  -6.8185492771023707e-03  -7.0497977750829579e-03  -7.2975215189709465e-03  -7.5482756040147272e-03  -7.7845310052328332e-03  -7.9873027030462722e-03  -8.1385986643654883e-03  -8.2208761662508727e-03  -8.2070470765229046e-03  -8.0537365371615242e-03  -7.7140284866169953e-03  -7.1812081299764746e-03  -6.4286493069585096e-03  -5.5145669836702471e-03  -4.4630252213463031e-03  -3.3135564837125774e-03  -2.0825188026963246e-03  -9.5668481219224311e-04  -2.6150084798801234e-04  -3.2914303442492227e-05  -3.8006730709458105e-05  -6.4564667189901976e-04  -2.5693550141278319e-03  -4.9992368382848519e-03  -6.4222389051283874e-03  -6.9338692872137342e-03  -7.1764036137198957e-03  -7.5373877267207786e-03  -7.9599174067304310e-03  -8.2859688966660863e-03  -8.4546742103482828e-03  -8.4925477469588936e-03  -8.4345724547052504e-03  -8.2970949681739087e-03  -8.0915754600667574e-03  -7.8362756549072779e-03  -7.5549763979660027e-03  -7.2704583934624905e-03  -6.9996018362078853e-03  -6.7528394038237913e-03  -6.5365420788529851e-03  -6.3552832008684701e-03  -6.2125998269448521e-03  -6.1108627167195222e-03  -6.0512158582021469e-03  -6.0339041021730110e-03  -6.0587567408571042e-03  -6.1254642312966656e-03  -6.2334650926287472e-03  -6.3815752877190842e-03  -6.5677203805467148e-03  -6.7888951998960412e-03  -7.0406929511800031e-03  -7.3154435595797979e-03  -7.5998473384825682e-03  -7.8752236785808120e-03  -8.1218878132666063e-03  -8.3250882467420673e-03  -8.4765330992057353e-03  -8.5568979608546692e-03  -8.5286846643953043e-03  -8.3376405084174057e-03  -8.0533577523942499e-03  -7.6869549664254277e-03  -7.4323741421827893e-03  -7.2695816609363072e-03  -6.7631982156528504e-03  -4.7101707839965834e-03  -1.9646556045129432e-03  -3.8635311688970693e-04  -2.1649864043526102e-05  -3.9371558476003818e-04  -2.9326583821349022e-03  -1.0617946152563959e-02  -1.8302345751295943e-02  -2.1029570004166848e-02  -1.8910028299387011e-02  -1.4455630017429791e-02  -1.0944770026958758e-02  -9.5278828920639831e-03  -9.1580188494949852e-03  -9.0195599765423417e-03  -8.8894313224018549e-03  -8.7324085575947643e-03  -8.5236899484329044e-03  -8.2548176200980157e-03  -7.9403946679669560e-03  -7.6071750889106981e-03  -7.2810378235052993e-03  -6.9789483740944234e-03  -6.7089442192347073e-03  -6.4749283397462750e-03  -6.2802264871178997e-03  -6.1279742293306599e-03  -6.0202158099097649e-03  -5.9575448898108157e-03  -5.9396082144601596e-03  -5.9659171981603174e-03  -6.0363131545609090e-03  -6.1507571186404340e-03  -6.3086411386677598e-03  -6.5083519262289944e-03  -6.7477067705319577e-03  -7.0242035497338953e-03  -7.3323839068005761e-03  -7.6593760258854178e-03  -7.9844176270590841e-03  -8.2850347596167082e-03  -8.5493542766904920e-03  -8.7825948776004813e-03  -9.0031309905248633e-03  -9.2088686771580348e-03  -9.3820487262701192e-03  -1.0027139985070134e-02  -1.1550030274918388e-02  -1.4477014017626869e-02  -1.8477345057883600e-02  -2.1441669269602528e-02  -1.9509395900793886e-02  -1.1740759362022558e-02  -2.2944144318593168e-03  -8.6781310268137173e-05  -1.5163915388539985e-03  -1.7314391121642504e-02  -3.0075595312614299e-02  -2.8776215484827224e-02  -2.8180730659012585e-02  -2.9284967044912964e-02  -2.8567449820840852e-02  -2.3186319983325855e-02  -1.5837561923968430e-02  -1.1551159506550595e-02  -9.9742509636722657e-03  -9.3988479865373294e-03  -9.0884212822305837e-03  -8.7950729219148406e-03  -8.4497205516355211e-03  -8.0612640087501380e-03  -7.6628879682902086e-03  -7.2862814639448560e-03  -6.9482345948104788e-03  -6.6521427177608315e-03  -6.3979399253574340e-03  -6.1876503821721284e-03  -6.0244106779419413e-03  -5.9100352198094381e-03  -5.8442998567415439e-03  -5.8258761292849870e-03  -5.8537435048963580e-03  -5.9279983778206726e-03  -6.0494911676031125e-03  -6.2184941819590509e-03  -6.4337052893065931e-03  -6.6934473735758542e-03  -6.9979159079937604e-03  -7.3458591443875832e-03  -7.7259036950984260e-03  -8.1130462046927025e-03  -8.4780295165483820e-03  -8.8146242478343365e-03  -9.1573587177539283e-03  -9.6471857594987477e-03  -1.0498684431071449e-02  -1.2182794824505737e-02  -1.6153491446477083e-02  -2.2529754979703883e-02  -2.6785003073460375e-02  -2.9413487059097274e-02  -3.0447156018627127e-02  -3.0536844975311533e-02  -2.7582305998427169e-02  -1.6202437027400242e-02  -1.0825667026977260e-03  -8.5506440104770494e-03  -3.0575797482482188e-02  -3.1582618150083758e-02  -3.1622503482053387e-02  -3.1481711413845086e-02  -3.1291323010189519e-02  -3.0696552854139195e-02  -3.0431718395724186e-02  -2.8430732696751788e-02  -2.0701869466573434e-02  -1.3374962605636682e-02  -1.0498442656121876e-02  -9.6046384534671098e-03  -9.1383458365193737e-03  -8.6837206272725714e-03  -8.1988160341127485e-03  -7.7178738917363264e-03  -7.2813184661416836e-03  -6.9043642591238826e-03  -6.5808520040217177e-03  -6.3043706762797884e-03  -6.0762934661565716e-03  -5.9007874339371625e-03  -5.7796055165641440e-03  -5.7112206361786509e-03  -5.6926865334884754e-03  -5.7220831996630615e-03  -5.7999258104070488e-03  -5.9285970152250780e-03  -6.1098989320866768e-03  -6.3425399607139974e-03  -6.6239950117548650e-03  -6.9581407704339812e-03  -7.3522886963679722e-03  -7.7982213300282375e-03  -8.2643749824614070e-03  -8.7179439325997220e-03  -9.1695558882272828e-03  -9.7612827819825720e-03  -1.1157177611683299e-02  -1.4371865731200228e-02  -2.0360797891778585e-02  -2.6832018535617348e-02  -2.9974000632198544e-02  -3.0294385211210108e-02  -3.1091407293784023e-02  -3.1678806139046514e-02  -3.1747354852064973e-02  -3.0863570782712263e-02  -2.8128229706426866e-02  -5.8446072213639393e-03  -1.5487197346903696e-02  -3.1245031276973780e-02  -3.1293577452404443e-02  -3.1283606412646388e-02  -3.1340068605670297e-02  -3.1280648182915954e-02  -3.1213792818667725e-02  -3.1280880551396932e-02  -3.1564404758945667e-02  -3.1278426734892513e-02  -2.3876388991978172e-02  -1.5109168514961737e-02  -1.1159221418843455e-02  -9.7575683048085043e-03  -9.0065554158609892e-03  -8.3638943473338719e-03  -7.7686551618237031e-03  -7.2601095779563979e-03  -6.8446229853894262e-03  -6.4945368582113227e-03  -6.1935093920348055e-03  -5.9448694092347574e-03  -5.7558900379385738e-03  -5.6283200933720271e-03  -5.5584194751688836e-03  -5.5405492268214779e-03  -5.5712676332552499e-03  -5.6517173631470520e-03  -5.7869132658726827e-03  -5.9817063653488855e-03  -6.2345287424310260e-03  -6.5382680854537342e-03  -6.9010551578301124e-03  -7.3480343191280537e-03  -7.8813021668996952e-03  -8.4686918123106584e-03  -9.0992215745331478e-03  -9.9213711608679821e-03  -1.1625420798062948e-02  -1.6001028929043471e-02  -2.3972509333074515e-02  -3.0168901123965811e-02  -3.0877297119716804e-02  -3.1414800677382074e-02  -3.1220506572678389e-02  -3.1135095328897074e-02  -3.1255651946804568e-02  -3.1338564333548535e-02  -3.1274790755544249e-02  -3.0989983654679139e-02  -1.5308894287165524e-02  -1.8869739448984874e-02  -3.2789657019046431e-02  -3.1439937960677226e-02  -3.1281252055964062e-02  -3.1054678347673711e-02  -3.1075577064935720e-02  -3.1122555028255512e-02  -3.1290089957021289e-02  -3.1515314177058426e-02  -3.1725749081369090e-02  -3.1153884252321396e-02  -2.5156605277485457e-02  -1.7569711122679656e-02  -1.2114760791032599e-02  -9.8191733718907877e-03  -8.6724568548168755e-03  -7.8418938557523431e-03  -7.2267522411085900e-03  -6.7744350132750795e-03  -6.3991475905366309e-03  -6.0683907971331467e-03  -5.7943440234824077e-03  -5.5904664756448253e-03  -5.4576945699015738e-03  -5.3884450879119030e-03  -5.3726564274494395e-03  -5.4043105173388227e-03  -5.4854256277863710e-03  -5.6254821034620326e-03  -5.8354512017426514e-03  -6.1145606737457604e-03  -6.4437814823626620e-03  -6.8321905547325656e-03  -7.3488248432034492e-03  -8.0358818101734387e-03  -8.9058212994186491e-03  -1.0189591820361710e-02  -1.2600416843073826e-02  -1.7633683837592288e-02  -2.5108224315247070e-02  -3.0875232304004116e-02  -3.1472204191789886e-02  -3.1500353571877561e-02  -3.1233494966366144e-02  -3.1268584939106774e-02  -3.1123150070550037e-02  -3.1163851575053345e-02  -3.1386254513912429e-02  -3.1543884955250963e-02  -3.3122360658851893e-02  -1.7422722407234196e-02  -2.8797987389156593e-02  -4.6822680442608469e-02  -3.6346859241846788e-02  -3.1795921444140382e-02  -3.1226994153204034e-02  -3.1141446422956319e-02  -3.1129961418564486e-02  -3.1133426343526564e-02  -3.1188011569073314e-02  -3.1211922162204433e-02  -3.1067596665078481e-02  -3.0341851426905136e-02  -2.8406742905614416e-02  -2.1222226953561841e-02  -1.3866020148032055e-02  -1.0183246189075039e-02  -8.3188325888718679e-03  -7.3376331852990084e-03  -6.7859756468952636e-03  -6.3577066819918617e-03  -5.9718707759789545e-03  -5.6572385314336482e-03  -5.4330502092579634e-03  -5.2950320523009863e-03  -5.2289520882586558e-03  -5.2174535773811754e-03  -5.2501037986881346e-03  -5.3302319679537176e-03  -5.4743049480995166e-03  -5.7055221473695933e-03  -6.0340367211971224e-03  -6.4196235255109674e-03  -6.8588079413428871e-03  -7.5638266737947856e-03  -8.7815730372078574e-03  -1.0849668506497843e-02  -1.4545617741530945e-02  -2.0453094803333006e-02  -2.6523359868623343e-02  -2.9780297361144771e-02  -3.0936942383752504e-02  -3.1388171745900056e-02  -3.1222930776674564e-02  -3.1250025610089313e-02  -3.1222500875494229e-02  -3.1265121265372418e-02  -3.1330631186676020e-02  -3.2066916143354836e-02  -3.8137344426030180e-02  -4.8434689843087825e-02  -2.5633462339786653e-02  -3.5261970082666703e-02  -6.0794974500032350e-02  -4.6342928015554417e-02  -3.5937535270827679e-02  -3.1774436048378950e-02  -3.1324853955054979e-02  -3.1244595244528411e-02  -3.1192621998039502e-02  -3.1142307473592139e-02  -3.1124568482215363e-02  -3.1148537501575924e-02  -3.0867419573791514e-02  -3.0868445190085955e-02  -3.1766586686454476e-02  -2.6171081892039781e-02  -1.8367733968812777e-02  -1.2426808984951293e-02  -9.3871845598601112e-03  -7.9318604386159966e-03  -7.0721643152571777e-03  -6.4291715982932526e-03  -5.9675210439534424e-03  -5.6675661939639037e-03  -5.4929132897354382e-03  -5.4148463215794654e-03  -5.4047407618126051e-03  -5.4451308435464760e-03  -5.5414821420203021e-03  -5.7212089514218781e-03  -6.0372806938600171e-03  -6.5565865885766472e-03  -7.2491221323597805e-03  -8.1501093962453378e-03  -9.9356179628293483e-03  -1.3292054923277940e-02  -1.8448276250194823e-02  -2.5135487865347930e-02  -2.9393232043643705e-02  -3.0155892674547106e-02  -3.0841084597383609e-02  -3.1064720099611930e-02  -3.1234198499493777e-02  -3.1311962104969913e-02  -3.1307370710446578e-02  -3.1321115603709392e-02  -3.1384595768537471e-02  -3.2053852078544512e-02  -3.6810277457829006e-02  -4.6779300015714009e-02  -6.0777785143325498e-02  -3.3873521204833397e-02  -3.4201253116480347e-02  -6.3077983382497260e-02  -5.0555500373306209e-02  -4.0196050909229182e-02  -3.3683357130494987e-02  -3.1618011355022242e-02  -3.1360420378660804e-02  -3.1310131887063386e-02  -3.1256235168762983e-02  -3.1196649262079459e-02  -3.1169394061444738e-02  -3.1266734685299960e-02  -3.1215584576457435e-02  -3.1107836691562023e-02  -3.2108481578124869e-02  -3.1152730708515781e-02  -2.4840924605355037e-02  -2.0467127460259894e-02  -1.7028601792307207e-02  -1.4065464166695371e-02  -1.2020564190968672e-02  -1.0782968185002005e-02  -1.0042096617236001e-02  -9.6196262304676042e-03  -9.4130264874252283e-03  -9.3510625694038958e-03  -9.4154480546186064e-03  -9.6328005623419373e-03  -1.0058284267292647e-02  -1.0831251101404725e-02  -1.2222426990585756e-02  -1.4182728206530956e-02  -1.6346144735794457e-02  -2.0058177152247027e-02  -2.5662402248548974e-02  -3.0241820854673734e-02  -3.0798782668438093e-02  -3.1046128030975409e-02  -3.1209519068777457e-02  -3.1145925800794495e-02  -3.1320448911628239e-02  -3.1364533660844671e-02  -3.1381704644752255e-02  -3.1384703118069165e-02  -3.1414025185764159e-02  -3.1775728997443776e-02  -3.4035925434589366e-02  -4.0121789103205387e-02  -4.9950499539333719e-02  -6.2327495779041862e-02  -3.5357330019084351e-02  -2.6149943930965949e-02  -5.2741410060479464e-02  -4.6023228268722599e-02  -3.9745344250064867e-02  -3.4935058742456525e-02  -3.2221643249445951e-02  -3.1510637568939133e-02  -3.1383114255448832e-02  -3.1358944083174259e-02  -3.1328117447207454e-02  -3.1286479429416342e-02  -3.1265517186440890e-02  -3.1394998264321669e-02  -3.1550125131979856e-02  -3.1416558563955206e-02  -3.1569302695027467e-02  -3.0694503016684249e-02  -2.9453255975179442e-02  -3.0818688059448627e-02  -3.0244543747986404e-02  -2.7956982811172700e-02  -2.6385936510171241e-02  -2.5502167056389562e-02  -2.5039952920146397e-02  -2.5003578621222319e-02  -2.5132866224375161e-02  -2.5223094959923545e-02  -2.5348505067108801e-02  -2.5669546426218375e-02  -2.6424497906844605e-02  -2.7991698130540289e-02  -3.0118703466487290e-02  -3.0427664002774642e-02  -2.9171712548687806e-02  -3.0302557746337097e-02  -3.1162892470529977e-02  -3.1691687285928999e-02  -3.1497786276646955e-02  -3.1442319698457281e-02  -3.1492829989945341e-02  -3.1452345814229461e-02  -3.1437993281827344e-02  -3.1421872923417832e-02  -3.1441954269268824e-02  -3.1619595172179230e-02  -3.2361235497159815e-02  -3.4805910611865123e-02  -3.9090547015563047e-02  -4.4918056084168052e-02  -5.1489887977275002e-02  -2.9280422550276120e-02  -1.7410553508785901e-02  -3.6773555829817596e-02  -3.6289883779321103e-02  -3.5172424991276582e-02  -3.3770108784948627e-02  -3.2484698456218104e-02  -3.1749941144771594e-02  -3.1478630260421442e-02  -3.1413834851859050e-02  -3.1412607127916610e-02  -3.1428996995448072e-02  -3.1438829749455541e-02  -3.1427238340219786e-02  -3.1469924752387204e-02  -3.1564320624254461e-02  -3.1496550312111925e-02  -3.1254306475535398e-02  -3.0942620045013674e-02  -3.1231288592196246e-02  -3.1983792780368718e-02  -3.1750171823434474e-02  -3.1227962927207701e-02  -3.1103950562452826e-02  -3.1035259361183232e-02  -3.0925706096695475e-02  -3.1020335010281470e-02  -3.1168519321916430e-02  -3.1226199389615152e-02  -3.1163171946615643e-02  -3.1104370947836722e-02  -3.1337940803300719e-02  -