<?xml version="1.0"?>
<VTKFile type="UnstructuredGrid"  version="0.1"  >
<UnstructuredGrid>
<Piece  NumberOfPoints="2601" NumberOfCells="5000">
<Points>
<DataArray  type="Float64"  NumberOfComponents="3"  format="ascii">0 0 0  0.03 0 0  0.06 0 0  0.09 0 0  0.12 0 0  0.15 0 0  0.18 0 0  0.21 0 0  0.24 0 0  0.27 0 0  0.3 0 0  0.33 0 0  0.36 0 0  0.39 0 0  0.42 0 0  0.45 0 0  0.48 0 0  0.51 0 0  0.54 0 0  0.57 0 0  0.6 0 0  0.63 0 0  0.66 0 0  0.6899999999999999 0 0  0.72 0 0  0.75 0 0  0.78 0 0  0.8100000000000001 0 0  0.84 0 0  0.87 0 0  0.9 0 0  0.93 0 0  0.96 0 0  0.99 0 0  1.02 0 0  1.05 0 0  1.08 0 0  1.11 0 0  1.14 0 0  1.17 0 0  1.2 0 0  1.23 0 0  1.26 0 0  1.29 0 0  1.32 0 0  1.35 0 0  1.38 0 0  1.41 0 0  1.44 0 0  1.47 0 0  1.5 0 0  0 0.02 0  0.03 0.02 0  0.06 0.02 0  0.09 0.02 0  0.12 0.02 0  0.15 0.02 0  0.18 0.02 0  0.21 0.02 0  0.24 0.02 0  0.27 0.02 0  0.3 0.02 0  0.33 0.02 0  0.36 0.02 0  0.39 0.02 0  0.42 0.02 0  0.45 0.02 0  0.48 0.02 0  0.51 0.02 0  0.54 0.02 0  0.57 0.02 0  0.6 0.02 0  0.63 0.02 0  0.66 0.02 0  0.6899999999999999 0.02 0  0.72 0.02 0  0.75 0.02 0  0.78 0.02 0  0.8100000000000001 0.02 0  0.84 0.02 0  0.87 0.02 0  0.9 0.02 0  0.93 0.02 0  0.96 0.02 0  0.99 0.02 0  1.02 0.02 0  1.05 0.02 0  1.08 0.02 0  1.11 0.02 0  1.14 0.02 0  1.17 0.02 0  1.2 0.02 0  1.23 0.02 0  1.26 0.02 0  1.29 0.02 0  1.32 0.02 0  1.35 0.02 0  1.38 0.02 0  1.41 0.02 0  1.44 0.02 0  1.47 0.02 0  1.5 0.02 0  0 0.04 0  0.03 0.04 0  0.06 0.04 0  0.09 0.04 0  0.12 0.04 0  0.15 0.04 0  0.18 0.04 0  0.21 0.04 0  0.24 0.04 0  0.27 0.04 0  0.3 0.04 0  0.33 0.04 0  0.36 0.04 0  0.39 0.04 0  0.42 0.04 0  0.45 0.04 0  0.48 0.04 0  0.51 0.04 0  0.54 0.04 0  0.57 0.04 0  0.6 0.04 0  0.63 0.04 0  0.66 0.04 0  0.6899999999999999 0.04 0  0.72 0.04 0  0.75 0.04 0  0.78 0.04 0  0.8100000000000001 0.04 0  0.84 0.04 0  0.87 0.04 0  0.9 0.04 0  0.93 0.04 0  0.96 0.04 0  0.99 0.04 0  1.02 0.04 0  1.05 0.04 0  1.08 0.04 0  1.11 0.04 0  1.14 0.04 0  1.17 0.04 0  1.2 0.04 0  1.23 0.04 0  1.26 0.04 0  1.29 0.04 0  1.32 0.04 0  1.35 0.04 0  1.38 0.04 0  1.41 0.04 0  1.44 0.04 0  1.47 0.04 0  1.5 0.04 0  0 0.06 0  0.03 0.06 0  0.06 0.06 0  0.09 0.06 0  0.12 0.06 0  0.15 0.06 0  0.18 0.06 0  0.21 0.06 0  0.24 0.06 0  0.27 0.06 0  0.3 0.06 0  0.33 0.06 0  0.36 0.06 0  0.39 0.06 0  0.42 0.06 0  0.45 0.06 0  0.48 0.06 0  0.51 0.06 0  0.54 0.06 0  0.57 0.06 0  0.6 0.06 0  0.63 0.06 0  0.66 0.06 0  0.6899999999999999 0.06 0  0.72 0.06 0  0.75 0.06 0  0.78 0.06 0  0.8100000000000001 0.06 0  0.84 0.06 0  0.87 0.06 0  0.9 0.06 0  0.93 0.06 0  0.96 0.06 0  0.99 0.06 0  1.02 0.06 0  1.05 0.06 0  1.08 0.06 0  1.11 0.06 0  1.14 0.06 0  1.17 0.06 0  1.2 0.06 0  1.23 0.06 0  1.26 0.06 0  1.29 0.06 0  1.32 0.06 0  1.35 0.06 0  1.38 0.06 0  1.41 0.06 0  1.44 0.06 0  1.47 0.06 0  1.5 0.06 0  0 0.08 0  0.03 0.08 0  0.06 0.08 0  0.09 0.08 0  0.12 0.08 0  0.15 0.08 0  0.18 0.08 0  0.21 0.08 0  0.24 0.08 0  0.27 0.08 0  0.3 0.08 0  0.33 0.08 0  0.36 0.08 0  0.39 0.08 0  0.42 0.08 0  0.45 0.08 0  0.48 0.08 0  0.51 0.08 0  0.54 0.08 0  0.57 0.08 0  0.6 0.08 0  0.63 0.08 0  0.66 0.08 0  0.6899999999999999 0.08 0  0.72 0.08 0  0.75 0.08 0  0.78 0.08 0  0.8100000000000001 0.08 0  0.84 0.08 0  0.87 0.08 0  0.9 0.08 0  0.93 0.08 0  0.96 0.08 0  0.99 0.08 0  1.02 0.08 0  1.05 0.08 0  1.08 0.08 0  1.11 0.08 0  1.14 0.08 0  1.17 0.08 0  1.2 0.08 0  1.23 0.08 0  1.26 0.08 0  1.29 0.08 0  1.32 0.08 0  1.35 0.08 0  1.38 0.08 0  1.41 0.08 0  1.44 0.08 0  1.47 0.08 0  1.5 0.08 0  0 0.1 0  0.03 0.1 0  0.06 0.1 0  0.09 0.1 0  0.12 0.1 0  0.15 0.1 0  0.18 0.1 0  0.21 0.1 0  0.24 0.1 0  0.27 0.1 0  0.3 0.1 0  0.33 0.1 0  0.36 0.1 0  0.39 0.1 0  0.42 0.1 0  0.45 0.1 0  0.48 0.1 0  0.51 0.1 0  0.54 0.1 0  0.57 0.1 0  0.6 0.1 0  0.63 0.1 0  0.66 0.1 0  0.6899999999999999 0.1 0  0.72 0.1 0  0.75 0.1 0  0.78 0.1 0  0.8100000000000001 0.1 0  0.84 0.1 0  0.87 0.1 0  0.9 0.1 0  0.93 0.1 0  0.96 0.1 0  0.99 0.1 0  1.02 0.1 0  1.05 0.1 0  1.08 0.1 0  1.11 0.1 0  1.14 0.1 0  1.17 0.1 0  1.2 0.1 0  1.23 0.1 0  1.26 0.1 0  1.29 0.1 0  1.32 0.1 0  1.35 0.1 0  1.38 0.1 0  1.41 0.1 0  1.44 0.1 0  1.47 0.1 0  1.5 0.1 0  0 0.12 0  0.03 0.12 0  0.06 0.12 0  0.09 0.12 0  0.12 0.12 0  0.15 0.12 0  0.18 0.12 0  0.21 0.12 0  0.24 0.12 0  0.27 0.12 0  0.3 0.12 0  0.33 0.12 0  0.36 0.12 0  0.39 0.12 0  0.42 0.12 0  0.45 0.12 0  0.48 0.12 0  0.51 0.12 0  0.54 0.12 0  0.57 0.12 0  0.6 0.12 0  0.63 0.12 0  0.66 0.12 0  0.6899999999999999 0.12 0  0.72 0.12 0  0.75 0.12 0  0.78 0.12 0  0.8100000000000001 0.12 0  0.84 0.12 0  0.87 0.12 0  0.9 0.12 0  0.93 0.12 0  0.96 0.12 0  0.99 0.12 0  1.02 0.12 0  1.05 0.12 0  1.08 0.12 0  1.11 0.12 0  1.14 0.12 0  1.17 0.12 0  1.2 0.12 0  1.23 0.12 0  1.26 0.12 0  1.29 0.12 0  1.32 0.12 0  1.35 0.12 0  1.38 0.12 0  1.41 0.12 0  1.44 0.12 0  1.47 0.12 0  1.5 0.12 0  0 0.14 0  0.03 0.14 0  0.06 0.14 0  0.09 0.14 0  0.12 0.14 0  0.15 0.14 0  0.18 0.14 0  0.21 0.14 0  0.24 0.14 0  0.27 0.14 0  0.3 0.14 0  0.33 0.14 0  0.36 0.14 0  0.39 0.14 0  0.42 0.14 0  0.45 0.14 0  0.48 0.14 0  0.51 0.14 0  0.54 0.14 0  0.57 0.14 0  0.6 0.14 0  0.63 0.14 0  0.66 0.14 0  0.6899999999999999 0.14 0  0.72 0.14 0  0.75 0.14 0  0.78 0.14 0  0.8100000000000001 0.14 0  0.84 0.14 0  0.87 0.14 0  0.9 0.14 0  0.93 0.14 0  0.96 0.14 0  0.99 0.14 0  1.02 0.14 0  1.05 0.14 0  1.08 0.14 0  1.11 0.14 0  1.14 0.14 0  1.17 0.14 0  1.2 0.14 0  1.23 0.14 0  1.26 0.14 0  1.29 0.14 0  1.32 0.14 0  1.35 0.14 0  1.38 0.14 0  1.41 0.14 0  1.44 0.14 0  1.47 0.14 0  1.5 0.14 0  0 0.16 0  0.03 0.16 0  0.06 0.16 0  0.09 0.16 0  0.12 0.16 0  0.15 0.16 0  0.18 0.16 0  0.21 0.16 0  0.24 0.16 0  0.27 0.16 0  0.3 0.16 0  0.33 0.16 0  0.36 0.16 0  0.39 0.16 0  0.42 0.16 0  0.45 0.16 0  0.48 0.16 0  0.51 0.16 0  0.54 0.16 0  0.57 0.16 0  0.6 0.16 0  0.63 0.16 0  0.66 0.16 0  0.6899999999999999 0.16 0  0.72 0.16 0  0.75 0.16 0  0.78 0.16 0  0.8100000000000001 0.16 0  0.84 0.16 0  0.87 0.16 0  0.9 0.16 0  0.93 0.16 0  0.96 0.16 0  0.99 0.16 0  1.02 0.16 0  1.05 0.16 0  1.08 0.16 0  1.11 0.16 0  1.14 0.16 0  1.17 0.16 0  1.2 0.16 0  1.23 0.16 0  1.26 0.16 0  1.29 0.16 0  1.32 0.16 0  1.35 0.16 0  1.38 0.16 0  1.41 0.16 0  1.44 0.16 0  1.47 0.16 0  1.5 0.16 0  0 0.18 0  0.03 0.18 0  0.06 0.18 0  0.09 0.18 0  0.12 0.18 0  0.15 0.18 0  0.18 0.18 0  0.21 0.18 0  0.24 0.18 0  0.27 0.18 0  0.3 0.18 0  0.33 0.18 0  0.36 0.18 0  0.39 0.18 0  0.42 0.18 0  0.45 0.18 0  0.48 0.18 0  0.51 0.18 0  0.54 0.18 0  0.57 0.18 0  0.6 0.18 0  0.63 0.18 0  0.66 0.18 0  0.6899999999999999 0.18 0  0.72 0.18 0  0.75 0.18 0  0.78 0.18 0  0.8100000000000001 0.18 0  0.84 0.18 0  0.87 0.18 0  0.9 0.18 0  0.93 0.18 0  0.96 0.18 0  0.99 0.18 0  1.02 0.18 0  1.05 0.18 0  1.08 0.18 0  1.11 0.18 0  1.14 0.18 0  1.17 0.18 0  1.2 0.18 0  1.23 0.18 0  1.26 0.18 0  1.29 0.18 0  1.32 0.18 0  1.35 0.18 0  1.38 0.18 0  1.41 0.18 0  1.44 0.18 0  1.47 0.18 0  1.5 0.18 0  0 0.2 0  0.03 0.2 0  0.06 0.2 0  0.09 0.2 0  0.12 0.2 0  0.15 0.2 0  0.18 0.2 0  0.21 0.2 0  0.24 0.2 0  0.27 0.2 0  0.3 0.2 0  0.33 0.2 0  0.36 0.2 0  0.39 0.2 0  0.42 0.2 0  0.45 0.2 0  0.48 0.2 0  0.51 0.2 0  0.54 0.2 0  0.57 0.2 0  0.6 0.2 0  0.63 0.2 0  0.66 0.2 0  0.6899999999999999 0.2 0  0.72 0.2 0  0.75 0.2 0  0.78 0.2 0  0.8100000000000001 0.2 0  0.84 0.2 0  0.87 0.2 0  0.9 0.2 0  0.93 0.2 0  0.96 0.2 0  0.99 0.2 0  1.02 0.2 0  1.05 0.2 0  1.08 0.2 0  1.11 0.2 0  1.14 0.2 0  1.17 0.2 0  1.2 0.2 0  1.23 0.2 0  1.26 0.2 0  1.29 0.2 0  1.32 0.2 0  1.35 0.2 0  1.38 0.2 0  1.41 0.2 0  1.44 0.2 0  1.47 0.2 0  1.5 0.2 0  0 0.22 0  0.03 0.22 0  0.06 0.22 0  0.09 0.22 0  0.12 0.22 0  0.15 0.22 0  0.18 0.22 0  0.21 0.22 0  0.24 0.22 0  0.27 0.22 0  0.3 0.22 0  0.33 0.22 0  0.36 0.22 0  0.39 0.22 0  0.42 0.22 0  0.45 0.22 0  0.48 0.22 0  0.51 0.22 0  0.54 0.22 0  0.57 0.22 0  0.6 0.22 0  0.63 0.22 0  0.66 0.22 0  0.6899999999999999 0.22 0  0.72 0.22 0  0.75 0.22 0  0.78 0.22 0  0.8100000000000001 0.22 0  0.84 0.22 0  0.87 0.22 0  0.9 0.22 0  0.93 0.22 0  0.96 0.22 0  0.99 0.22 0  1.02 0.22 0  1.05 0.22 0  1.08 0.22 0  1.11 0.22 0  1.14 0.22 0  1.17 0.22 0  1.2 0.22 0  1.23 0.22 0  1.26 0.22 0  1.29 0.22 0  1.32 0.22 0  1.35 0.22 0  1.38 0.22 0  1.41 0.22 0  1.44 0.22 0  1.47 0.22 0  1.5 0.22 0  0 0.24 0  0.03 0.24 0  0.06 0.24 0  0.09 0.24 0  0.12 0.24 0  0.15 0.24 0  0.18 0.24 0  0.21 0.24 0  0.24 0.24 0  0.27 0.24 0  0.3 0.24 0  0.33 0.24 0  0.36 0.24 0  0.39 0.24 0  0.42 0.24 0  0.45 0.24 0  0.48 0.24 0  0.51 0.24 0  0.54 0.24 0  0.57 0.24 0  0.6 0.24 0  0.63 0.24 0  0.66 0.24 0  0.6899999999999999 0.24 0  0.72 0.24 0  0.75 0.24 0  0.78 0.24 0  0.8100000000000001 0.24 0  0.84 0.24 0  0.87 0.24 0  0.9 0.24 0  0.93 0.24 0  0.96 0.24 0  0.99 0.24 0  1.02 0.24 0  1.05 0.24 0  1.08 0.24 0  1.11 0.24 0  1.14 0.24 0  1.17 0.24 0  1.2 0.24 0  1.23 0.24 0  1.26 0.24 0  1.29 0.24 0  1.32 0.24 0  1.35 0.24 0  1.38 0.24 0  1.41 0.24 0  1.44 0.24 0  1.47 0.24 0  1.5 0.24 0  0 0.26 0  0.03 0.26 0  0.06 0.26 0  0.09 0.26 0  0.12 0.26 0  0.15 0.26 0  0.18 0.26 0  0.21 0.26 0  0.24 0.26 0  0.27 0.26 0  0.3 0.26 0  0.33 0.26 0  0.36 0.26 0  0.39 0.26 0  0.42 0.26 0  0.45 0.26 0  0.48 0.26 0  0.51 0.26 0  0.54 0.26 0  0.57 0.26 0  0.6 0.26 0  0.63 0.26 0  0.66 0.26 0  0.6899999999999999 0.26 0  0.72 0.26 0  0.75 0.26 0  0.78 0.26 0  0.8100000000000001 0.26 0  0.84 0.26 0  0.87 0.26 0  0.9 0.26 0  0.93 0.26 0  0.96 0.26 0  0.99 0.26 0  1.02 0.26 0  1.05 0.26 0  1.08 0.26 0  1.11 0.26 0  1.14 0.26 0  1.17 0.26 0  1.2 0.26 0  1.23 0.26 0  1.26 0.26 0  1.29 0.26 0  1.32 0.26 0  1.35 0.26 0  1.38 0.26 0  1.41 0.26 0  1.44 0.26 0  1.47 0.26 0  1.5 0.26 0  0 0.28 0  0.03 0.28 0  0.06 0.28 0  0.09 0.28 0  0.12 0.28 0  0.15 0.28 0  0.18 0.28 0  0.21 0.28 0  0.24 0.28 0  0.27 0.28 0  0.3 0.28 0  0.33 0.28 0  0.36 0.28 0  0.39 0.28 0  0.42 0.28 0  0.45 0.28 0  0.48 0.28 0  0.51 0.28 0  0.54 0.28 0  0.57 0.28 0  0.6 0.28 0  0.63 0.28 0  0.66 0.28 0  0.6899999999999999 0.28 0  0.72 0.28 0  0.75 0.28 0  0.78 0.28 0  0.8100000000000001 0.28 0  0.84 0.28 0  0.87 0.28 0  0.9 0.28 0  0.93 0.28 0  0.96 0.28 0  0.99 0.28 0  1.02 0.28
[...]
<PointData  Scalars="sensitivity"> 
<DataArray  type="Float64"  Name="sensitivity"  format="ascii">-2.0998993420202076e-07  -4.5469414995577681e-06  -2.1369754947622386e-05  -5.9618976998625100e-05  -1.2264968183025484e-04  -2.0469491615344123e-04  -2.9503398274726485e-04  -3.8296751321482286e-04  -4.6027428021903433e-04  -5.2321312163860166e-04  -5.7415141082100933e-04  -6.2002329900807181e-04  -6.6723929542176509e-04  -7.1736191486279123e-04  -7.6717527252180139e-04  -8.1199697907572625e-04  -8.4868126125989935e-04  -8.7641832022765549e-04  -8.9599718298726927e-04  -9.0888323703997682e-04  -9.1668364905011254e-04  -9.2092023673101889e-04  -9.2293341699398667e-04  -9.2382855919673505e-04  -9.2442763034135357e-04  -9.2521782408713847e-04  -9.2631122094549874e-04  -9.2743069889890352e-04  -9.2792147903285067e-04  -9.2677785433979741e-04  -9.2268181616505835e-04  -9.1406255169010093e-04  -8.9919738730780379e-04  -8.7642258963023772e-04  -8.4462936963892868e-04  -8.0420445367936847e-04  -7.5801635860247348e-04  -7.1105169170419770e-04  -6.6748140201749117e-04  -6.2670147443464827e-04  -5.8254083420261984e-04  -5.2744403139268388e-04  -4.5749302820392672e-04  -3.7326127522886748e-04  -2.7856118014747878e-04  -1.8195229217953565e-04  -9.7757770059076203e-05  -3.9749949372722087e-05  -1.0771048700851895e-05  -1.1003794407477713e-06  -2.9433101774332195e-09  -2.3981395696702201e-06  -3.6983696168635802e-05  -1.6954408009923846e-04  -4.8714059937557917e-04  -1.0291406837984350e-03  -1.7471725555992270e-03  -2.5426801466248024e-03  -3.3178989049833106e-03  -3.9983495802009871e-03  -4.5463355806148282e-03  -4.9761424809970003e-03  -5.3473801862670345e-03  -5.7232943836340250e-03  -6.1276052527348759e-03  -6.5384233692333009e-03  -6.9153686931525109e-03  -7.2283034980936490e-03  -7.4672554122770405e-03  -7.6371333239922861e-03  -7.7495404739004823e-03  -7.8177714738037578e-03  -7.8546503591154001e-03  -7.8716344856290584e-03  -7.8783582386096687e-03  -7.8822399819283261e-03  -7.8880272919506743e-03  -7.8973943952395861e-03  -7.9087575150593621e-03  -7.9173338340469464e-03  -7.9153473220017114e-03  -7.8923238726957019e-03  -7.8355344174929776e-03  -7.7307119952349434e-03  -7.5634396512766384e-03  -7.3225130251660690e-03  -7.0071634684473975e-03  -6.6365666650690276e-03  -6.2510421822216918e-03  -5.8914334021174216e-03  -5.5633578911833993e-03  -5.2211129908889507e-03  -4.7961292148409702e-03  -4.2431108505702848e-03  -3.5540930122865706e-03  -2.7469215973056076e-03  -1.8801750529535224e-03  -1.0760194962636028e-03  -4.7842596524090363e-04  -1.5096367750135292e-04  -2.7024094526775947e-05  -7.2388322423031026e-07  -7.4828373188964952e-06  -8.4673289218951421e-05  -3.2664057415797047e-04  -8.9909789573755625e-04  -1.8572016094340431e-03  -3.0763782378512034e-03  -4.3669167196311994e-03  -5.5770384080586445e-03  -6.6072863011962966e-03  -7.4076369266056616e-03  -8.0036820770664919e-03  -8.5010108987280172e-03  -9.0151587071412766e-03  -9.5882323603763055e-03  -1.0179420612049347e-02  -1.0719621169452445e-02  -1.1162455612717798e-02  -1.1496103941365845e-02  -1.1730244228101988e-02  -1.1882546274402852e-02  -1.1972291282771325e-02  -1.2017952806303125e-02  -1.2036104197608232e-02  -1.2040884700142083e-02  -1.2043459103913551e-02  -1.2051200509412371e-02  -1.2066905506861333e-02  -1.2088464888935875e-02  -1.2109043491091561e-02  -1.2117483837748600e-02  -1.2098725133619075e-02  -1.2034361069473101e-02  -1.1903569394639513e-02  -1.1684707976887506e-02  -1.1359236659400251e-02  -1.0922147860267382e-02  -1.0399665482745903e-02  -9.8572191053357076e-03  -9.3666969812970010e-03  -8.9378749615506327e-03  -8.4866449843208729e-03  -7.8966663732306253e-03  -7.1073734909561006e-03  -6.1143995419382013e-03  -4.9096303428492949e-03  -3.5177762613638063e-03  -2.1125617631295081e-03  -9.8938189027941020e-04  -3.3775958704440297e-04  -7.8421025968141605e-05  -4.5593713939796646e-06  -1.2923177872349201e-05  -1.5972986623719406e-04  -5.9150464217345717e-04  -1.5417949714930234e-03  -2.9643586959299407e-03  -4.5469334374725967e-03  -6.0354226590922959e-03  -7.3181106673467508e-03  -8.3378679472111434e-03  -9.0552579737425160e-03  -9.5114926176692368e-03  -9.8698816659897552e-03  -1.0309535089965183e-02  -1.0881802222686908e-02  -1.1503817034137765e-02  -1.2063683314327351e-02  -1.2502310726159758e-02  -1.2815950289176155e-02  -1.3024236494697843e-02  -1.3150523523538139e-02  -1.3217039615359109e-02  -1.3243585656880970e-02  -1.3246982529431248e-02  -1.3241465901593349e-02  -1.3238645203292336e-02  -1.3246328242192882e-02  -1.3267144187744915e-02  -1.3298067765142203e-02  -1.3330974601736781e-02  -1.3353485711320232e-02  -1.3349409719853161e-02  -1.3298929002285562e-02  -1.3179182777746696e-02  -1.2965282551143020e-02  -1.2633080558927551e-02  -1.2171449897917248e-02  -1.1612508191406004e-02  -1.1059937716055632e-02  -1.0651572184773406e-02  -1.0426310305342738e-02  -1.0219771949566732e-02  -9.7781412899280891e-03  -9.0017465314061133e-03  -7.9760330237830992e-03  -6.7450736840732875e-03  -5.2154840017422073e-03  -3.3994772438826356e-03  -1.6928130552953497e-03  -5.9317218629098263e-04  -1.4077872299263393e-04  -1.0062343883965967e-05  -1.4718225989087514e-05  -3.0389407077548983e-04  -1.3224211746929921e-03  -3.2691163601392755e-03  -5.5582445460446977e-03  -7.5626250901442557e-03  -9.1270375320290417e-03  -1.0288116442997325e-02  -1.1016446011492447e-02  -1.1244608720307695e-02  -1.1093277951225581e-02  -1.0931803609436765e-02  -1.1084995126272387e-02  -1.1588741054043937e-02  -1.2250770298643413e-02  -1.2859188733975277e-02  -1.3316282542829336e-02  -1.3621548616415726e-02  -1.3804676558024054e-02  -1.3896926124813899e-02  -1.3928041093730647e-02  -1.3922911601325199e-02  -1.3900008281489094e-02  -1.3873935511416727e-02  -1.3857123101077135e-02  -1.3858424944225300e-02  -1.3880839688126713e-02  -1.3920747826561676e-02  -1.3968938233853164e-02  -1.4011939698932375e-02  -1.4032051709609672e-02  -1.4006551921185849e-02  -1.3908545747524955e-02  -1.3709198467370084e-02  -1.3378932253770976e-02  -1.2896441750787069e-02  -1.2287138366001541e-02  -1.1683695045074053e-02  -1.1326021880912463e-02  -1.1403900871971372e-02  -1.1810416362608859e-02  -1.2109916863795823e-02  -1.1918495702808209e-02  -1.1226836580618620e-02  -1.0136694311269141e-02  -8.5803803192845574e-03  -6.4242484562712001e-03  -3.6878301677217462e-03  -1.3025617667422624e-03  -2.3389055147315458e-04  -1.2046512462128399e-05  -1.6477045013474219e-05  -8.2627922398640079e-04  -3.9199713863559034e-03  -8.5611236612049731e-03  -1.2376515437315208e-02  -1.4595612241522596e-02  -1.5981207291513325e-02  -1.6527178328852785e-02  -1.6270652850173265e-02  -1.5449818391096746e-02  -1.4202161811351680e-02  -1.2996251787859943e-02  -1.2382927358301581e-02  -1.2449523238892828e-02  -1.2911599171109893e-02  -1.3443361959190187e-02  -1.3875725544712395e-02  -1.4172793249057116e-02  -1.4339930264148898e-02  -1.4398917733167153e-02  -1.4386131075066410e-02  -1.4335721305858478e-02  -1.4271212566525651e-02  -1.4210440069503390e-02  -1.4169269677681128e-02  -1.4159492806815383e-02  -1.4185496381744845e-02  -1.4243440489066431e-02  -1.4323121166410865e-02  -1.4410182825971115e-02  -1.4485486616241938e-02  -1.4522636493186126e-02  -1.4490827336900493e-02  -1.4365674515559347e-02  -1.4135535819334695e-02  -1.3801472398015397e-02  -1.3399962264264469e-02  -1.3056452148819649e-02  -1.3011062075906592e-02  -1.3509291091403631e-02  -1.4568906770498448e-02  -1.5882201528615594e-02  -1.7125711900298872e-02  -1.8233363710991154e-02  -1.8462947032587707e-02  -1.6723740914889602e-02  -1.3626985943168709e-02  -9.4242450035680863e-03  -3.8893132467661359e-03  -4.9479642647728701e-04  -8.7009886001020068e-06  -1.1540362488056448e-04  -5.6293855605554352e-03  -1.5612391546336478e-02  -1.9207459338786505e-02  -2.4126269238199039e-02  -2.6828086367769528e-02  -2.7282917525237722e-02  -2.6654612980772024e-02  -2.4782152242591844e-02  -2.2554627590992832e-02  -2.0523073051957972e-02  -1.8441010709735216e-02  -1.6568861594271324e-02  -1.5293901100147342e-02  -1.4615679349470922e-02  -1.4322393038300829e-02  -1.4243920273191222e-02  -1.4268575643388660e-02  -1.4295499047728201e-02  -1.4271446304985037e-02  -1.4199632618858146e-02  -1.4099180834999198e-02  -1.3987842932345489e-02  -1.3887300646273092e-02  -1.3821719970759904e-02  -1.3808757605146939e-02  -1.3853080665602048e-02  -1.3945927677640612e-02  -1.4070011923360133e-02  -1.4207189357583621e-02  -1.4342669196151785e-02  -1.4463152989089966e-02  -1.4560440031753325e-02  -1.4655845381944647e-02  -1.4816613488948641e-02  -1.5127026294959297e-02  -1.5652537443057831e-02  -1.6457715937441171e-02  -1.7650229236521254e-02  -1.9288992559247667e-02  -2.1191865171220257e-02  -2.3128824070988228e-02  -2.5330316770533323e-02  -2.8500216268034857e-02  -3.2252789774102654e-02  -3.2205390204891916e-02  -2.7813554980629776e-02  -2.1883793799712933e-02  -1.3486592385333691e-02  -2.6841353532147190e-03  -1.1203625228053058e-05  -1.3700479247421089e-03  -1.5050140413538724e-02  -3.7221329871216305e-02  -3.0939796799614661e-02  -2.4128936457033207e-02  -2.3555714290409695e-02  -2.4390227639090278e-02  -2.5504828469334054e-02  -2.6396041943628653e-02  -2.6369557602083173e-02  -2.5659538206244083e-02  -2.4627334551482707e-02  -2.3335322143657845e-02  -2.1813532081757746e-02  -1.9951704653809136e-02  -1.7858166093539161e-02  -1.6105944362735977e-02  -1.4994388066445099e-02  -1.4367072931945682e-02  -1.4011449925134874e-02  -1.3801735191188772e-02  -1.3653117356580783e-02  -1.3516151954966362e-02  -1.3390316644751554e-02  -1.3303788152857435e-02  -1.3282050184253996e-02  -1.3331694728234160e-02  -1.3440407498534477e-02  -1.3588326319321820e-02  -1.3768543251060968e-02  -1.4007627835453215e-02  -1.4371534803020140e-02  -1.4947293494248953e-02  -1.5810099050923340e-02  -1.6961330539153986e-02  -1.8311107537547274e-02  -1.9828319468759285e-02  -2.1544702684611904e-02  -2.3438557183975594e-02  -2.5386146860815119e-02  -2.6929495873792120e-02  -2.7390027374183501e-02  -2.6863613347637441e-02  -2.6328628067589257e-02  -2.6505091740920680e-02  -2.7446581056661031e-02  -2.8529939951604154e-02  -2.8309523885380716e-02  -2.5508047370687993e-02  -1.3166769258300869e-02  -1.6110456359437670e-04  -6.6352505103753285e-03  -3.0772957565019420e-02  -2.2632124182845399e-02  -2.0447219644466105e-02  -2.0138811729039075e-02  -1.7410464882346825e-02  -1.6060132418570773e-02  -1.6861481971269417e-02  -1.9154760918529617e-02  -2.1549507647713649e-02  -2.2813663958785164e-02  -2.3198333381379950e-02  -2.3736515836052560e-02  -2.5160375380394159e-02  -2.6812112435944467e-02  -2.6508256720481852e-02  -2.4253430149825003e-02  -2.1526483047588144e-02  -1.8953794244647489e-02  -1.6956563900444196e-02  -1.5665817708565566e-02  -1.4889810669960046e-02  -1.4419394936391085e-02  -1.4128994500640228e-02  -1.3971553841419728e-02  -1.3939326875816702e-02  -1.4037279961471890e-02  -1.4277702899447501e-02  -1.4688376083171811e-02  -1.5328767940597678e-02  -1.6292724660421965e-02  -1.7642488288802900e-02  -1.9336434976243769e-02  -2.1352442988064869e-02  -2.3502894817481045e-02  -2.4927587605355000e-02  -2.4875924539004501e-02  -2.4105012446342246e-02  -2.3689541508783742e-02  -2.3793897218039324e-02  -2.3890397399182750e-02  -2.3093582429941143e-02  -2.1068493050214465e-02  -1.9036949130877067e-02  -1.8279175422817269e-02  -1.8688426754837516e-02  -1.9346695503060295e-02  -1.9553923229909648e-02  -2.1956341854884334e-02  -2.7137775396825034e-02  -4.1019476633980569e-03  -1.6363829686903992e-02  -3.3339564038124714e-02  -3.1319590939584432e-02  -2.6543350498767264e-02  -2.6038635369237957e-02  -2.5034903426543412e-02  -2.3010759662804275e-02  -2.1980718420575633e-02  -2.2232260176079221e-02  -2.3109304737124713e-02  -2.3546031241316562e-02  -2.3201639548914504e-02  -2.2508073836700740e-02  -2.1974847371580234e-02  -2.2011313439109358e-02  -2.3132755007930269e-02  -2.5884437431088241e-02  -2.9296517265663478e-02  -3.0068381257929575e-02  -2.7957365303752604e-02  -2.5481508483490976e-02  -2.3489524423133883e-02  -2.1979380185594075e-02  -2.0945522347081202e-02  -2.0388664022235652e-02  -2.0278200215371044e-02  -2.0577187466702299e-02  -2.1246529531789345e-02  -2.2237997558178568e-02  -2.3539113076708276e-02  -2.5185795546930879e-02  -2.6961186309479173e-02  -2.7849965066133471e-02  -2.6822665547937101e-02  -2.4812424898427606e-02  -2.3342621830585896e-02  -2.2827177645265703e-02  -2.3046720782186780e-02  -2.3743804223136544e-02  -2.4643443568834654e-02  -2.5353627554577107e-02  -2.5551957234864361e-02  -2.5393774189322094e-02  -2.5437605330226862e-02  -2.5975964062119539e-02  -2.6756111633594711e-02  -2.7336209266248114e-02  -2.7212687676712484e-02  -2.7164816101880727e-02  -3.0153887761333747e-02  -1.4823540593223784e-02  -2.3143816451096959e-02  -4.0567210048212926e-02  -3.7627672485941822e-02  -3.4340539668269138e-02  -3.1952730425101966e-02  -3.0721601538369836e-02  -2.9902103645037110e-02  -2.9310135205126226e-02  -2.8978795187563029e-02  -2.8846066293416447e-02  -2.8460385233285094e-02  -2.7550041590973576e-02  -2.6333130532365280e-02  -2.5057810843834523e-02  -2.3793176588281159e-02  -2.2607040110958761e-02  -2.1732473669282805e-02  -2.1464085883539173e-02  -2.1920523440929041e-02  -2.3044941710721415e-02  -2.4562707603120841e-02  -2.5767240674719191e-02  -2.6024199121811861e-02  -2.5555950692621385e-02  -2.5012360204566986e-02  -2.4798070627486013e-02  -2.4987936246970686e-02  -2.5399592236468701e-02  -2.5613391577276604e-02  -2.5199971609974222e-02  -2.4213475241415976e-02  -2.3206127579076266e-02  -2.2642039722184096e-02  -2.2586859889949275e-02  -2.2932328965663336e-02  -2.3618487937293715e-02  -2.4608057330810014e-02  -2.5832198330345977e-02  -2.7192115976719902e-02  -2.8532635102189320e-02  -2.9616482180488211e-02  -3.0294460363692811e-02  -3.0742391813058972e-02  -3.1284996312978444e-02  -3.2106460108593762e-02  -3.3243873839460578e-02  -3.4475696412320837e-02  -3.5750949473411252e-02  -3.7337620038778108e-02  -4.0330991957635481e-02  -2.1474441062899190e-02  -3.2122801238500434e-02  -5.3428970675941288e-02  -4.3885472615384460e-02  -3.8449148658568306e-02  -3.4909729730671406e-02  -3.2366751397783874e-02  -3.1268653124102583e-02  -3.1112001791259804e-02  -3.1174946198351327e-02  -3.1248924461414505e-02  -3.1137666973771284e-02  -3.0576440270507908e-02  -2.9627756482122396e-02  -2.8554807150664382e-02  -2.7509317252988469e-02  -2.6463945551105861e-02  -2.5300860160732859e-02  -2.3969013469018221e-02  -2.2593026938003819e-02  -2.1398096608983966e-02  -2.0522173156028351e-02  -1.9931160546999400e-02  -1.9501251077056692e-02  -1.9160442337511883e-02  -1.8940012281120057e-02  -1.8902699028013382e-02  -1.9076835078798978e-02  -1.9445986577655106e-02  -1.9959359619140724e-02  -2.0563845231097992e-02  -2.1258844251727825e-02  -2.2101253674917845e-02  -2.3130800223840613e-02  -2.4317064065572491e-02  -2.5573441938271161e-02  -2.6811000329024059e-02  -2.7999345522777868e-02  -2.9163092465126172e-02  -3.0299065502624636e-02  -3.1299243765512755e-02  -3.1996377945230040e-02  -3.2354745872105038e-02  -3.2544385578632359e-02  -3.2803631054121700e-02  -3.3468775282921734e-02  -3.4889162147548919e-02  -3.6956126421478767e-02  -3.9680429663130436e-02  -4.5334605553229018e-02  -5.4986753434333242e-02  -2.9852871497014773e-02  -3.8004408599205432e-02  -6.4950196170219368e-02  -5.0948518229634761e-02  -4.1963136774765181e-02  -3.7015604086522554e-02  -3.3701988163372214e-02  -3.1708522814289097e-02  -3.1110607424505960e-02  -3.1169312601652094e-02  -3.1413900500332353e-02  -3.1663207442332995e-02  -3.1677926412633194e-02  -3.1329677035975473e-02  -3.0713768773990929e-02  -2.9984325428323307e-02  -2.9238251793358171e-02  -2.8494247732140817e-02  -2.7696382588262628e-02  -2.6766255815056636e-02  -2.5684531614843069e-02  -2.4527812728400464e-02  -2.3427652489219887e-02  -2.2498422163979029e-02  -2.1807861742452462e-02  -2.1392460933477912e-02  -2.1272094366806774e-02  -2.1447405401823338e-02  -2.1895590314910725e-02  -2.2576124636352665e-02  -2.3444273202342596e-02  -2.4458379988470530e-02  -2.5570526464447487e-02  -2.6717450923473902e-02  -2.7830870207868997e-02  -2.8853789018117609e-02  -2.9755811247628841e-02  -3.0547327525375971e-02  -3.1262299501614056e-02  -3.1898676349913821e-02  -3.2378825154992547e-02  -3.2621783014718651e-02  -3.2675905614188504e-02  -3.2705354189659995e-02  -3.2945881319506660e-02  -3.3864176491421878e-02  -3.5870034780282140e-02  -3.8806416880861214e-02  -4.3422447165838221e-02  -5.2094297013355183e-02  -6.5551857632196439e-02  -3.6932027519290304e-02  -3.7007976206373527e-02  -6.6096456527509284e-02  -5.2688912734670586e-02  -4.3528014039095758e-02  -3.8281387084088868e-02  -3.4895900236712143e-02  -3.2656563275792361e-02  -3.1651313693322573e-02  -3.1453165376041113e-02  -3.1582124187692073e-02  -3.1822363001672023e-02  -3.2002319968705166e-02  -3.2001680460714124e-02  -3.1829218458368648e-02  -3.1538964677872851e-02  -3.1157682755656887e-02  -3.0704108590251643e-02  -3.0202161284374467e-02  -2.9656665056195075e-02  -2.9049173925333370e-02  -2.8375273230290762e-02  -2.7676277007500482e-02  -2.7026831267071123e-02  -2.6503633763964442e-02  -2.6167908050870846e-02  -2.6057116811512644e-02  -2.6178160547625524e-02  -2.6507519531236961e-02  -2.7002375470854701e-02  -2.7617141101318413e-02  -2.8312344937090707e-02  -2.9049676850503761e-02  -2.9784384596959632e-02  -3.0466376637938459e-02  -3.1049852448992728e-02  -3.1513836911331437e-02  -3.1882703919320944e-02  -3.2209268707667209e-02  -3.2513716604587101e-02  -3.2746059905807791e-02  -3.2850791452819501e-02  -3.2875793593529185e-02  -3.2957662016961028e-02  -3.3307699157489941e-02  -3.4403638083187901e-02  -3.6734688048915880e-02  -4.0081991448188761e-02  -4.4823809005937514e-02  -5.3088460543364996e-02  -6.5830394752992738e-02  -3.8069894771563265e-02  -2.9931032967068213e-02  -5.6452897559882163e-02  -4.7916967111709688e-02  -4.1840753131749037e-02  -3.7978795936748355e-02  -3.5245034304925801e-02  -3.3441468678468034e-02  -3.2603392017381154e-02  -3.2386317627613452e-02  -3.2421761967642342e-02  -3.2523760819884125e-02  -3.2579996967602838e-02  -3.2549297818047898e-02  -3.2477269512760684e-02  -3.2412709140874504e-02  -3.2346337274958233e-02  -3.2240031269541558e-02  -3.2074473935199230e-02  -3.1849410722282923e-02  -3.1558201066346367e-02  -3.1188227743508361e-02  -3.0750030818713029e-02  -3.0296160289763802e-02  -2.9908178108812949e-02  -2.9665442727020375e-02  -2.9615870023002897e-02  -2.9760365650551904e-02  -3.0056209862188783e-02  -3.0437873138818065e-02  -3.0845016065707959e-02  -3.1241129685350540e-02  -3.1611294635333818e-02  -3.1944892808470467e-02  -3.2222388305370435e-02  -3.2422855776357735e-02  -3.2551862931101599e-02  -3.2660696599318043e-02  -3.2819801884777448e-02  -3.3054387362835169e-02  -3.3306251084780136e-02  -3.3486302923241583e-02  -3.3585772248988663e-02  -3.3693932142658693e-02  -3.3955112766529121e-02  -3.4736818126616935e-02  -3.6621212120549473e-02  -3.9602133850525134e-02  -4.3065464509255857e-02  -4.7698448269791340e-02  -5.5277131132229276e-02  -3.2293971193610979e-02  -2.1226992023054114e-02  -4.1939985950916733e-02  -4.0567545055439476e-02  -3.9106829819146108e-02  -3.6967177798945247e-02  -3.5159337854246762e-02  -3.4117502204827226e-02  -3.3778118216559121e-02  -3.3800240507540318e-02  -3.3886389107696320e-02  -3.3889731036032614e-02  -3.3763647321986542e-02  -3.3555652828219686e-02  -3.3366920719202893e-02  -3.3265900843679301e-02  -3.3250471998043069e-02  -3.3281424993258188e-02  -3.3328032810556754e-02  -3.3375136285705972e-02  -3.3400169518351924e-02  -3.3362079897881244e-02  -3.3224429292478458e-02  -3.2994067810438538e-02  -3.2736829530806387e-02  -3.2550350225473632e-02  -3.2511179536341514e-02  -3.2632643644671749e-02  -3.2859704917808902e-02  -3.3102601633674761e-02  -3.3287497531670915e-02  -3.3390373070607715e-02  -