<?xml version="1.0"?>
<VTKFile type="UnstructuredGrid"  version="0.1"  >
<UnstructuredGrid>
<Piece  NumberOfPoints="2601" NumberOfCells="5000">
<Points>
<DataArray  type="Float64"  NumberOfComponents="3"  format="ascii">0 0 0  0.03 0 0  0.06 0 0  0.09 0 0  0.12 0 0  0.15 0 0  0.18 0 0  0.21 0 0  0.24 0 0  0.27 0 0  0.3 0 0  0.33 0 0  0.36 0 0  0.39 0 0  0.42 0 0  0.45 0 0  0.48 0 0  0.51 0 0  0.54 0 0  0.57 0 0  0.6 0 0  0.63 0 0  0.66 0 0  0.6899999999999999 0 0  0.72 0 0  0.75 0 0  0.78 0 0  0.8100000000000001 0 0  0.84 0 0  0.87 0 0  0.9 0 0  0.93 0 0  0.96 0 0  0.99 0 0  1.02 0 0  1.05 0 0  1.08 0 0  1.11 0 0  1.14 0 0  1.17 0 0  1.2 0 0  1.23 0 0  1.26 0 0  1.29 0 0  1.32 0 0  1.35 0 0  1.38 0 0  1.41 0 0  1.44 0 0  1.47 0 0  1.5 0 0  0 0.02 0  0.03 0.02 0  0.06 0.02 0  0.09 0.02 0  0.12 0.02 0  0.15 0.02 0  0.18 0.02 0  0.21 0.02 0  0.24 0.02 0  0.27 0.02 0  0.3 0.02 0  0.33 0.02 0  0.36 0.02 0  0.39 0.02 0  0.42 0.02 0  0.45 0.02 0  0.48 0.02 0  0.51 0.02 0  0.54 0.02 0  0.57 0.02 0  0.6 0.02 0  0.63 0.02 0  0.66 0.02 0  0.6899999999999999 0.02 0  0.72 0.02 0  0.75 0.02 0  0.78 0.02 0  0.8100000000000001 0.02 0  0.84 0.02 0  0.87 0.02 0  0.9 0.02 0  0.93 0.02 0  0.96 0.02 0  0.99 0.02 0  1.02 0.02 0  1.05 0.02 0  1.08 0.02 0  1.11 0.02 0  1.14 0.02 0  1.17 0.02 0  1.2 0.02 0  1.23 0.02 0  1.26 0.02 0  1.29 0.02 0  1.32 0.02 0  1.35 0.02 0  1.38 0.02 0  1.41 0.02 0  1.44 0.02 0  1.47 0.02 0  1.5 0.02 0  0 0.04 0  0.03 0.04 0  0.06 0.04 0  0.09 0.04 0  0.12 0.04 0  0.15 0.04 0  0.18 0.04 0  0.21 0.04 0  0.24 0.04 0  0.27 0.04 0  0.3 0.04 0  0.33 0.04 0  0.36 0.04 0  0.39 0.04 0  0.42 0.04 0  0.45 0.04 0  0.48 0.04 0  0.51 0.04 0  0.54 0.04 0  0.57 0.04 0  0.6 0.04 0  0.63 0.04 0  0.66 0.04 0  0.6899999999999999 0.04 0  0.72 0.04 0  0.75 0.04 0  0.78 0.04 0  0.8100000000000001 0.04 0  0.84 0.04 0  0.87 0.04 0  0.9 0.04 0  0.93 0.04 0  0.96 0.04 0  0.99 0.04 0  1.02 0.04 0  1.05 0.04 0  1.08 0.04 0  1.11 0.04 0  1.14 0.04 0  1.17 0.04 0  1.2 0.04 0  1.23 0.04 0  1.26 0.04 0  1.29 0.04 0  1.32 0.04 0  1.35 0.04 0  1.38 0.04 0  1.41 0.04 0  1.44 0.04 0  1.47 0.04 0  1.5 0.04 0  0 0.06 0  0.03 0.06 0  0.06 0.06 0  0.09 0.06 0  0.12 0.06 0  0.15 0.06 0  0.18 0.06 0  0.21 0.06 0  0.24 0.06 0  0.27 0.06 0  0.3 0.06 0  0.33 0.06 0  0.36 0.06 0  0.39 0.06 0  0.42 0.06 0  0.45 0.06 0  0.48 0.06 0  0.51 0.06 0  0.54 0.06 0  0.57 0.06 0  0.6 0.06 0  0.63 0.06 0  0.66 0.06 0  0.6899999999999999 0.06 0  0.72 0.06 0  0.75 0.06 0  0.78 0.06 0  0.8100000000000001 0.06 0  0.84 0.06 0  0.87 0.06 0  0.9 0.06 0  0.93 0.06 0  0.96 0.06 0  0.99 0.06 0  1.02 0.06 0  1.05 0.06 0  1.08 0.06 0  1.11 0.06 0  1.14 0.06 0  1.17 0.06 0  1.2 0.06 0  1.23 0.06 0  1.26 0.06 0  1.29 0.06 0  1.32 0.06 0  1.35 0.06 0  1.38 0.06 0  1.41 0.06 0  1.44 0.06 0  1.47 0.06 0  1.5 0.06 0  0 0.08 0  0.03 0.08 0  0.06 0.08 0  0.09 0.08 0  0.12 0.08 0  0.15 0.08 0  0.18 0.08 0  0.21 0.08 0  0.24 0.08 0  0.27 0.08 0  0.3 0.08 0  0.33 0.08 0  0.36 0.08 0  0.39 0.08 0  0.42 0.08 0  0.45 0.08 0  0.48 0.08 0  0.51 0.08 0  0.54 0.08 0  0.57 0.08 0  0.6 0.08 0  0.63 0.08 0  0.66 0.08 0  0.6899999999999999 0.08 0  0.72 0.08 0  0.75 0.08 0  0.78 0.08 0  0.8100000000000001 0.08 0  0.84 0.08 0  0.87 0.08 0  0.9 0.08 0  0.93 0.08 0  0.96 0.08 0  0.99 0.08 0  1.02 0.08 0  1.05 0.08 0  1.08 0.08 0  1.11 0.08 0  1.14 0.08 0  1.17 0.08 0  1.2 0.08 0  1.23 0.08 0  1.26 0.08 0  1.29 0.08 0  1.32 0.08 0  1.35 0.08 0  1.38 0.08 0  1.41 0.08 0  1.44 0.08 0  1.47 0.08 0  1.5 0.08 0  0 0.1 0  0.03 0.1 0  0.06 0.1 0  0.09 0.1 0  0.12 0.1 0  0.15 0.1 0  0.18 0.1 0  0.21 0.1 0  0.24 0.1 0  0.27 0.1 0  0.3 0.1 0  0.33 0.1 0  0.36 0.1 0  0.39 0.1 0  0.42 0.1 0  0.45 0.1 0  0.48 0.1 0  0.51 0.1 0  0.54 0.1 0  0.57 0.1 0  0.6 0.1 0  0.63 0.1 0  0.66 0.1 0  0.6899999999999999 0.1 0  0.72 0.1 0  0.75 0.1 0  0.78 0.1 0  0.8100000000000001 0.1 0  0.84 0.1 0  0.87 0.1 0  0.9 0.1 0  0.93 0.1 0  0.96 0.1 0  0.99 0.1 0  1.02 0.1 0  1.05 0.1 0  1.08 0.1 0  1.11 0.1 0  1.14 0.1 0  1.17 0.1 0  1.2 0.1 0  1.23 0.1 0  1.26 0.1 0  1.29 0.1 0  1.32 0.1 0  1.35 0.1 0  1.38 0.1 0  1.41 0.1 0  1.44 0.1 0  1.47 0.1 0  1.5 0.1 0  0 0.12 0  0.03 0.12 0  0.06 0.12 0  0.09 0.12 0  0.12 0.12 0  0.15 0.12 0  0.18 0.12 0  0.21 0.12 0  0.24 0.12 0  0.27 0.12 0  0.3 0.12 0  0.33 0.12 0  0.36 0.12 0  0.39 0.12 0  0.42 0.12 0  0.45 0.12 0  0.48 0.12 0  0.51 0.12 0  0.54 0.12 0  0.57 0.12 0  0.6 0.12 0  0.63 0.12 0  0.66 0.12 0  0.6899999999999999 0.12 0  0.72 0.12 0  0.75 0.12 0  0.78 0.12 0  0.8100000000000001 0.12 0  0.84 0.12 0  0.87 0.12 0  0.9 0.12 0  0.93 0.12 0  0.96 0.12 0  0.99 0.12 0  1.02 0.12 0  1.05 0.12 0  1.08 0.12 0  1.11 0.12 0  1.14 0.12 0  1.17 0.12 0  1.2 0.12 0  1.23 0.12 0  1.26 0.12 0  1.29 0.12 0  1.32 0.12 0  1.35 0.12 0  1.38 0.12 0  1.41 0.12 0  1.44 0.12 0  1.47 0.12 0  1.5 0.12 0  0 0.14 0  0.03 0.14 0  0.06 0.14 0  0.09 0.14 0  0.12 0.14 0  0.15 0.14 0  0.18 0.14 0  0.21 0.14 0  0.24 0.14 0  0.27 0.14 0  0.3 0.14 0  0.33 0.14 0  0.36 0.14 0  0.39 0.14 0  0.42 0.14 0  0.45 0.14 0  0.48 0.14 0  0.51 0.14 0  0.54 0.14 0  0.57 0.14 0  0.6 0.14 0  0.63 0.14 0  0.66 0.14 0  0.6899999999999999 0.14 0  0.72 0.14 0  0.75 0.14 0  0.78 0.14 0  0.8100000000000001 0.14 0  0.84 0.14 0  0.87 0.14 0  0.9 0.14 0  0.93 0.14 0  0.96 0.14 0  0.99 0.14 0  1.02 0.14 0  1.05 0.14 0  1.08 0.14 0  1.11 0.14 0  1.14 0.14 0  1.17 0.14 0  1.2 0.14 0  1.23 0.14 0  1.26 0.14 0  1.29 0.14 0  1.32 0.14 0  1.35 0.14 0  1.38 0.14 0  1.41 0.14 0  1.44 0.14 0  1.47 0.14 0  1.5 0.14 0  0 0.16 0  0.03 0.16 0  0.06 0.16 0  0.09 0.16 0  0.12 0.16 0  0.15 0.16 0  0.18 0.16 0  0.21 0.16 0  0.24 0.16 0  0.27 0.16 0  0.3 0.16 0  0.33 0.16 0  0.36 0.16 0  0.39 0.16 0  0.42 0.16 0  0.45 0.16 0  0.48 0.16 0  0.51 0.16 0  0.54 0.16 0  0.57 0.16 0  0.6 0.16 0  0.63 0.16 0  0.66 0.16 0  0.6899999999999999 0.16 0  0.72 0.16 0  0.75 0.16 0  0.78 0.16 0  0.8100000000000001 0.16 0  0.84 0.16 0  0.87 0.16 0  0.9 0.16 0  0.93 0.16 0  0.96 0.16 0  0.99 0.16 0  1.02 0.16 0  1.05 0.16 0  1.08 0.16 0  1.11 0.16 0  1.14 0.16 0  1.17 0.16 0  1.2 0.16 0  1.23 0.16 0  1.26 0.16 0  1.29 0.16 0  1.32 0.16 0  1.35 0.16 0  1.38 0.16 0  1.41 0.16 0  1.44 0.16 0  1.47 0.16 0  1.5 0.16 0  0 0.18 0  0.03 0.18 0  0.06 0.18 0  0.09 0.18 0  0.12 0.18 0  0.15 0.18 0  0.18 0.18 0  0.21 0.18 0  0.24 0.18 0  0.27 0.18 0  0.3 0.18 0  0.33 0.18 0  0.36 0.18 0  0.39 0.18 0  0.42 0.18 0  0.45 0.18 0  0.48 0.18 0  0.51 0.18 0  0.54 0.18 0  0.57 0.18 0  0.6 0.18 0  0.63 0.18 0  0.66 0.18 0  0.6899999999999999 0.18 0  0.72 0.18 0  0.75 0.18 0  0.78 0.18 0  0.8100000000000001 0.18 0  0.84 0.18 0  0.87 0.18 0  0.9 0.18 0  0.93 0.18 0  0.96 0.18 0  0.99 0.18 0  1.02 0.18 0  1.05 0.18 0  1.08 0.18 0  1.11 0.18 0  1.14 0.18 0  1.17 0.18 0  1.2 0.18 0  1.23 0.18 0  1.26 0.18 0  1.29 0.18 0  1.32 0.18 0  1.35 0.18 0  1.38 0.18 0  1.41 0.18 0  1.44 0.18 0  1.47 0.18 0  1.5 0.18 0  0 0.2 0  0.03 0.2 0  0.06 0.2 0  0.09 0.2 0  0.12 0.2 0  0.15 0.2 0  0.18 0.2 0  0.21 0.2 0  0.24 0.2 0  0.27 0.2 0  0.3 0.2 0  0.33 0.2 0  0.36 0.2 0  0.39 0.2 0  0.42 0.2 0  0.45 0.2 0  0.48 0.2 0  0.51 0.2 0  0.54 0.2 0  0.57 0.2 0  0.6 0.2 0  0.63 0.2 0  0.66 0.2 0  0.6899999999999999 0.2 0  0.72 0.2 0  0.75 0.2 0  0.78 0.2 0  0.8100000000000001 0.2 0  0.84 0.2 0  0.87 0.2 0  0.9 0.2 0  0.93 0.2 0  0.96 0.2 0  0.99 0.2 0  1.02 0.2 0  1.05 0.2 0  1.08 0.2 0  1.11 0.2 0  1.14 0.2 0  1.17 0.2 0  1.2 0.2 0  1.23 0.2 0  1.26 0.2 0  1.29 0.2 0  1.32 0.2 0  1.35 0.2 0  1.38 0.2 0  1.41 0.2 0  1.44 0.2 0  1.47 0.2 0  1.5 0.2 0  0 0.22 0  0.03 0.22 0  0.06 0.22 0  0.09 0.22 0  0.12 0.22 0  0.15 0.22 0  0.18 0.22 0  0.21 0.22 0  0.24 0.22 0  0.27 0.22 0  0.3 0.22 0  0.33 0.22 0  0.36 0.22 0  0.39 0.22 0  0.42 0.22 0  0.45 0.22 0  0.48 0.22 0  0.51 0.22 0  0.54 0.22 0  0.57 0.22 0  0.6 0.22 0  0.63 0.22 0  0.66 0.22 0  0.6899999999999999 0.22 0  0.72 0.22 0  0.75 0.22 0  0.78 0.22 0  0.8100000000000001 0.22 0  0.84 0.22 0  0.87 0.22 0  0.9 0.22 0  0.93 0.22 0  0.96 0.22 0  0.99 0.22 0  1.02 0.22 0  1.05 0.22 0  1.08 0.22 0  1.11 0.22 0  1.14 0.22 0  1.17 0.22 0  1.2 0.22 0  1.23 0.22 0  1.26 0.22 0  1.29 0.22 0  1.32 0.22 0  1.35 0.22 0  1.38 0.22 0  1.41 0.22 0  1.44 0.22 0  1.47 0.22 0  1.5 0.22 0  0 0.24 0  0.03 0.24 0  0.06 0.24 0  0.09 0.24 0  0.12 0.24 0  0.15 0.24 0  0.18 0.24 0  0.21 0.24 0  0.24 0.24 0  0.27 0.24 0  0.3 0.24 0  0.33 0.24 0  0.36 0.24 0  0.39 0.24 0  0.42 0.24 0  0.45 0.24 0  0.48 0.24 0  0.51 0.24 0  0.54 0.24 0  0.57 0.24 0  0.6 0.24 0  0.63 0.24 0  0.66 0.24 0  0.6899999999999999 0.24 0  0.72 0.24 0  0.75 0.24 0  0.78 0.24 0  0.8100000000000001 0.24 0  0.84 0.24 0  0.87 0.24 0  0.9 0.24 0  0.93 0.24 0  0.96 0.24 0  0.99 0.24 0  1.02 0.24 0  1.05 0.24 0  1.08 0.24 0  1.11 0.24 0  1.14 0.24 0  1.17 0.24 0  1.2 0.24 0  1.23 0.24 0  1.26 0.24 0  1.29 0.24 0  1.32 0.24 0  1.35 0.24 0  1.38 0.24 0  1.41 0.24 0  1.44 0.24 0  1.47 0.24 0  1.5 0.24 0  0 0.26 0  0.03 0.26 0  0.06 0.26 0  0.09 0.26 0  0.12 0.26 0  0.15 0.26 0  0.18 0.26 0  0.21 0.26 0  0.24 0.26 0  0.27 0.26 0  0.3 0.26 0  0.33 0.26 0  0.36 0.26 0  0.39 0.26 0  0.42 0.26 0  0.45 0.26 0  0.48 0.26 0  0.51 0.26 0  0.54 0.26 0  0.57 0.26 0  0.6 0.26 0  0.63 0.26 0  0.66 0.26 0  0.6899999999999999 0.26 0  0.72 0.26 0  0.75 0.26 0  0.78 0.26 0  0.8100000000000001 0.26 0  0.84 0.26 0  0.87 0.26 0  0.9 0.26 0  0.93 0.26 0  0.96 0.26 0  0.99 0.26 0  1.02 0.26 0  1.05 0.26 0  1.08 0.26 0  1.11 0.26 0  1.14 0.26 0  1.17 0.26 0  1.2 0.26 0  1.23 0.26 0  1.26 0.26 0  1.29 0.26 0  1.32 0.26 0  1.35 0.26 0  1.38 0.26 0  1.41 0.26 0  1.44 0.26 0  1.47 0.26 0  1.5 0.26 0  0 0.28 0  0.03 0.28 0  0.06 0.28 0  0.09 0.28 0  0.12 0.28 0  0.15 0.28 0  0.18 0.28 0  0.21 0.28 0  0.24 0.28 0  0.27 0.28 0  0.3 0.28 0  0.33 0.28 0  0.36 0.28 0  0.39 0.28 0  0.42 0.28 0  0.45 0.28 0  0.48 0.28 0  0.51 0.28 0  0.54 0.28 0  0.57 0.28 0  0.6 0.28 0  0.63 0.28 0  0.66 0.28 0  0.6899999999999999 0.28 0  0.72 0.28 0  0.75 0.28 0  0.78 0.28 0  0.8100000000000001 0.28 0  0.84 0.28 0  0.87 0.28 0  0.9 0.28 0  0.93 0.28 0  0.96 0.28 0  0.99 0.28 0  1.02 0.28
[...]
<PointData  Scalars="sensitivity"> 
<DataArray  type="Float64"  Name="sensitivity"  format="ascii">-1.2901080099048223e-06  -1.8360251118680145e-05  -7.6462853221742337e-05  -1.9454804180085668e-04  -3.7285642800809524e-04  -5.8878740613561723e-04  -8.1054668562701414e-04  -1.0112900464243739e-03  -1.1752054237245319e-03  -1.2969262041468124e-03  -1.3778816989583906e-03  -1.4229487246325584e-03  -1.4385046678369962e-03  -1.4313467653218823e-03  -1.4079716379463173e-03  -1.3741221699386939e-03  -1.3345912309588206e-03  -1.2932018879100800e-03  -1.2528728077287618e-03  -1.2157216699951890e-03  -1.1831943177017629e-03  -1.1562120475163934e-03  -1.1353203596203131e-03  -1.1208189610994882e-03  -1.1128595381522451e-03  -1.1115083920361370e-03  -1.1167781052821030e-03  -1.1286330780922807e-03  -1.1469696434934088e-03  -1.1715665620039505e-03  -1.2020003057554634e-03  -1.2375246065882196e-03  -1.2769248516281359e-03  -1.3183677529269994e-03  -1.3592666565507090e-03  -1.3961714555454322e-03  -1.4246886897876683e-03  -1.4394639925124754e-03  -1.4343032550653879e-03  -1.4025165663292508e-03  -1.3374669803939050e-03  -1.2334438729860804e-03  -1.0872210649257614e-03  -9.0088093372204007e-04  -6.8569603093055994e-04  -4.6383489127171419e-04  -2.6555208116924218e-04  -1.1985291627590112e-04  -3.7872871644814743e-05  -5.4246575622535830e-06  -5.1171712596993907e-08  -9.3111911279508898e-06  -7.5357007729174523e-05  -3.0018605944732676e-04  -7.8874839286613809e-04  -1.5599208131769741e-03  -2.5259904596669448e-03  -3.5454817869747142e-03  -4.4891195922932897e-03  -5.2746056644313736e-03  -5.8693587617621472e-03  -6.2750520083656742e-03  -6.5113593051871624e-03  -6.6062396405367190e-03  -6.5906126959028337e-03  -6.4947280024755432e-03  -6.3457446263681227e-03  -6.1665841940519430e-03  -5.9757126654695538e-03  -5.7873773047230391e-03  -5.6120356516671062e-03  -5.4569129147060847e-03  -5.3266651447216413e-03  -5.2240770394070130e-03  -5.1506929706491497e-03  -5.1073050525375606e-03  -5.0942749806762210e-03  -5.1117070006443848e-03  -5.1594986571345683e-03  -5.2372784237865655e-03  -5.3442133644629264e-03  -5.4786570150501717e-03  -5.6376246277206488e-03  -5.8161328150088155e-03  -6.0064989389390410e-03  -6.1977088945510267e-03  -6.3748987550554855e-03  -6.5189565694049557e-03  -6.6063383808539107e-03  -6.6094882954828753e-03  -6.4981917918450639e-03  -6.2418532742421328e-03  -5.8129836474656478e-03  -5.1933254877272392e-03  -4.3843313146419861e-03  -3.4252429795899437e-03  -2.4052765348830125e-03  -1.4543941851645416e-03  -7.1216952630857562e-04  -2.6013640181234984e-04  -6.2077945418535798e-05  -3.5699667985631801e-06  -2.6828327095543906e-05  -1.4649403056329164e-04  -4.3653352408478985e-04  -1.0515325920015209e-03  -1.9926977398738634e-03  -3.1389415668533595e-03  -4.3263247677178124e-03  -5.4103184133673333e-03  -6.3020657738616431e-03  -6.9709176451212568e-03  -7.4224422282728039e-03  -7.6794892350882382e-03  -7.7737578200720763e-03  -7.7409604812449422e-03  -7.6163425699177500e-03  -7.4314901234568279e-03  -7.2129820560874244e-03  -6.9822423018762406e-03  -6.7558307100354922e-03  -6.5458753885000841e-03  -6.3606654025089443e-03  -6.2054284249513647e-03  -6.0831934953451128e-03  -5.9955773121756501e-03  -5.9433785252891707e-03  -5.9269536163085394e-03  -5.9464107853886517e-03  -6.0016690359938731e-03  -6.0923987037726154e-03  -6.2178159872147186e-03  -6.3762791147656600e-03  -6.5646531625921465e-03  -6.7774851705627590e-03  -7.0061429823500970e-03  -7.2380857791366111e-03  -7.4563192810328553e-03  -7.6389830829644862e-03  -7.7590400961882501e-03  -7.7846873406413773e-03  -7.6808380635379489e-03  -7.4124530396873656e-03  -6.9477965489155450e-03  -6.2642392003599851e-03  -5.3556860782470505e-03  -4.2576023944710228e-03  -3.0679193762395197e-03  -1.9259295884119013e-03  -9.9251014113337348e-04  -3.9728933073566303e-04  -1.3032363867446171e-04  -1.6247066732165423e-05  -4.3814311139251798e-05  -2.4815718079211277e-04  -6.4978874711020724e-04  -1.4066821142360573e-03  -2.4510623132482528e-03  -3.6356029219621728e-03  -4.8169031287337528e-03  -5.8613280719981035e-03  -6.6947026179117481e-03  -7.3053646397381470e-03  -7.7064613524164194e-03  -7.9195250574995921e-03  -7.9744358052428899e-03  -7.9067710134715086e-03  -7.7520152572710362e-03  -7.5415400156283868e-03  -7.3014644697103467e-03  -7.0528588224244545e-03  -6.8120722118425311e-03  -6.5909965019154259e-03  -6.3975317930190139e-03  -6.2363893473476942e-03  -6.1100754810752460e-03  -6.0197875185697882e-03  -5.9660507845820899e-03  -5.9490802782934437e-03  -5.9689441052150479e-03  -6.0256123236386277e-03  -6.1189187668921601e-03  -6.2483898240473113e-03  -6.4128494460781588e-03  -6.6097254349179770e-03  -6.8340893313325610e-03  -7.0776741800294115e-03  -7.3281445280518687e-03  -7.5687663337871761e-03  -7.7781286128380932e-03  -7.9295303093353357e-03  -7.9910568172358691e-03  -7.9275662560455533e-03  -7.7064397353871711e-03  -7.2961447073008733e-03  -6.6736749597165572e-03  -5.8230311524864837e-03  -4.7579714619793408e-03  -3.5721576969297234e-03  -2.3852721365594334e-03  -1.3300610561909484e-03  -5.7807793253709754e-04  -2.1133324487389318e-04  -3.4029538829281475e-05  -4.0649941452354805e-05  -3.7350349123996940e-04  -1.0711860949411251e-03  -2.1204056305105571e-03  -3.2731328141396383e-03  -4.4284212500814253e-03  -5.5480652975528179e-03  -6.4870471614318628e-03  -7.1985436181469372e-03  -7.7061519584338848e-03  -8.0257845606412880e-03  -8.1699529630546927e-03  -8.1642647751447636e-03  -8.0445763993186002e-03  -7.8466449396162458e-03  -7.6008444548307311e-03  -7.3319698294611263e-03  -7.0602108397909234e-03  -6.8014495413729753e-03  -6.5671185824868238e-03  -6.3644006338109014e-03  -6.1970895383562765e-03  -6.0668049788208797e-03  -5.9740719988684108e-03  -5.9190061332233691e-03  -5.9016241264439736e-03  -5.9219372492784316e-03  -5.9799763944732671e-03  -6.0757966729676318e-03  -6.2093817521630653e-03  -6.3802921056889126e-03  -6.5868983571745927e-03  -6.8251858596997134e-03  -7.0875082103875019e-03  -7.3619055471216043e-03  -7.6322251979730436e-03  -7.8779295511420874e-03  -8.0734807694610826e-03  -8.1873908269541277e-03  -8.1854179541936654e-03  -8.0362246919641646e-03  -7.7092412356352088e-03  -7.1940254065009437e-03  -6.4794439656857801e-03  -5.5073529453243527e-03  -4.3839826670295868e-03  -3.2385502088571826e-03  -2.0498488015019251e-03  -9.5891703071707005e-04  -2.7962832662343086e-04  -4.0632941308585155e-05  -4.4954361556781818e-05  -7.0797850405429597e-04  -2.6721964790901677e-03  -5.0160297122032356e-03  -6.0377664863353730e-03  -6.4100628058069127e-03  -6.9002706896738163e-03  -7.4240732216142198e-03  -7.8760197148390436e-03  -8.2274332759579641e-03  -8.4412226790086756e-03  -8.4946510324399160e-03  -8.4070219775872739e-03  -8.2174182194064103e-03  -7.9625695987619715e-03  -7.6707038628466744e-03  -7.3642454562155915e-03  -7.0621829574189299e-03  -6.7800172863389952e-03  -6.5287361873026988e-03  -6.3145186955660699e-03  -6.1397711721645097e-03  -6.0048001990562648e-03  -5.9091970776996667e-03  -5.8525625017984556e-03  -5.8346950570370695e-03  -5.8555454559670456e-03  -5.9151948987694143e-03  -6.0139412445250019e-03  -6.1523497392137697e-03  -6.3310119469654714e-03  -6.5497113365659476e-03  -6.8058414133387026e-03  -7.0925561816121393e-03  -7.3982446816921654e-03  -7.7070260935524718e-03  -7.9998470981411142e-03  -8.2549517362281062e-03  -8.4395622154295556e-03  -8.5175526658841042e-03  -8.4550237649053880e-03  -8.2703874620995328e-03  -7.9597746473424671e-03  -7.6380613363525455e-03  -7.2110594734798366e-03  -6.8644528315899159e-03  -6.3501191440000519e-03  -4.3771549822533675e-03  -1.8922306361715319e-03  -3.8661516633397327e-04  -2.7261003255893705e-05  -5.8341555620649915e-04  -3.0058133431078412e-03  -1.0705746014510980e-02  -1.9647417883657238e-02  -2.2405814052699310e-02  -1.8520782356940900e-02  -1.3482144248902267e-02  -1.0128420598226282e-02  -8.9679369643488015e-03  -8.9086605720359729e-03  -8.9653436169681005e-03  -8.9004492842699647e-03  -8.7052127960845303e-03  -8.4261124434438124e-03  -8.1009972194115015e-03  -7.7528702956465682e-03  -7.4000964576667700e-03  -7.0603163747695119e-03  -6.7491575670576391e-03  -6.4774207773213377e-03  -6.2498979130235707e-03  -6.0669009783042667e-03  -5.9268442483650071e-03  -5.8281010963369051e-03  -5.7697065939131195e-03  -5.7512854311155973e-03  -5.7727458883480558e-03  -5.8341713991587945e-03  -5.9360577612049608e-03  -6.0796294680296788e-03  -6.2668359707499363e-03  -6.4995411091250425e-03  -6.7773561798993732e-03  -7.0943571994452545e-03  -7.4388820869670949e-03  -7.7943728468000371e-03  -8.1461443845706107e-03  -8.4764982034127648e-03  -8.7475887483977575e-03  -8.9342082763731664e-03  -9.0133114892656258e-03  -9.1461944079161053e-03  -9.5044383957095628e-03  -1.1104301551833029e-02  -1.3819616905641405e-02  -1.7935739231744362e-02  -2.2217520128577375e-02  -2.0230647053458586e-02  -1.1887608293577030e-02  -2.5089652379664098e-03  -9.2610177059678330e-05  -1.8044467996412414e-03  -1.8642443170948379e-02  -3.1198327014309076e-02  -3.1452688249894091e-02  -3.1543531403359096e-02  -3.1565116536792677e-02  -3.0678368339509893e-02  -2.4821224953585814e-02  -1.4486035054895796e-02  -1.0484112887814432e-02  -9.6992130933417076e-03  -9.4056760840197356e-03  -9.0570255689920217e-03  -8.6658885350701948e-03  -8.2587962840738830e-03  -7.8454315877581043e-03  -7.4376848250646381e-03  -7.0522643782849181e-03  -6.7062431142174720e-03  -6.4109550150106094e-03  -6.1691486277687720e-03  -5.9778635354393742e-03  -5.8328131403926047e-03  -5.7308745279979947e-03  -5.6705823138075992e-03  -5.6515492486271923e-03  -5.6737003546264804e-03  -5.7370063002355164e-03  -5.8419868192974697e-03  -5.9905158928220655e-03  -6.1862215304768825e-03  -6.4339819509808306e-03  -6.7370400350985410e-03  -7.0906801652632157e-03  -7.4821618197736415e-03  -7.8931947437414114e-03  -8.3135524403093377e-03  -8.7272692554147650e-03  -9.1361937690784302e-03  -9.5080527237964927e-03  -9.9433223114906433e-03  -1.1540740533313039e-02  -1.5031250477317792e-02  -2.3341371686881770e-02  -3.1181716237766846e-02  -3.1243163002798609e-02  -3.1420010624101782e-02  -3.1547941145573702e-02  -3.1445500076527362e-02  -1.9022104140171407e-02  -1.7085053960171365e-03  -9.3783372379760456e-03  -3.1586168486898929e-02  -3.1507129088777265e-02  -3.1491411619060640e-02  -3.1550613985338476e-02  -3.1654580881323072e-02  -3.1694131910098816e-02  -3.1394261103688759e-02  -3.0469860776525127e-02  -1.9346761133592395e-02  -1.2184828792067432e-02  -1.0185816589002084e-02  -9.4761777409980187e-03  -8.9305358591137470e-03  -8.4331199934767290e-03  -7.9469039751458252e-03  -7.4752923971319243e-03  -7.0350501734889803e-03  -6.6474975208935215e-03  -6.3262101403681551e-03  -6.0704789315164731e-03  -5.8719696053488989e-03  -5.7226088432793983e-03  -5.6175919064454542e-03  -5.5552377386785031e-03  -5.5355122001814134e-03  -5.5585000254174625e-03  -5.6238188263192717e-03  -5.7315928089916746e-03  -5.8842313802513922e-03  -6.0871595595999575e-03  -6.3495125226615138e-03  -6.6810329023650420e-03  -7.0797333352243816e-03  -7.5267164084545342e-03  -8.0031775771437306e-03  -8.4910354492127547e-03  -9.0291861607009784e-03  -9.7068500357435725e-03  -1.0651221587496318e-02  -1.3043379089006020e-02  -1.9299449120158092e-02  -3.0065645064765188e-02  -3.1326495175364087e-02  -3.1736170846941726e-02  -3.1569870882952364e-02  -3.1503714216726285e-02  -3.1513042999952175e-02  -3.1527398736035758e-02  -3.1603031657972562e-02  -7.1192243042657753e-03  -1.5746303487950152e-02  -3.1517184942540001e-02  -3.1524099793547547e-02  -3.1510031354093034e-02  -3.1517705477398815e-02  -3.1519218797742381e-02  -3.1572151761391588e-02  -3.1680134951904824e-02  -3.1537228525016281e-02  -3.0901067455580963e-02  -2.4653367174256379e-02  -1.3909333191929706e-02  -1.0269589838336035e-02  -9.2556324068443305e-03  -8.6306730760036220e-03  -8.0584894101498831e-03  -7.5126788527204854e-03  -7.0054709699692496e-03  -6.5676325959753657e-03  -6.2191200938388480e-03  -5.9520668343309210e-03  -5.7488951445443179e-03  -5.5965386539004545e-03  -5.4885883971060858e-03  -5.4237982222942044e-03  -5.4032110711971998e-03  -5.4273691213000980e-03  -5.4950617525035238e-03  -5.6051796333661287e-03  -5.7604327616653100e-03  -5.9676431549731653e-03  -6.2417024073544644e-03  -6.6039338239746240e-03  -7.0605015990688035e-03  -7.5698397986988849e-03  -8.1406134624184816e-03  -8.6983935859574445e-03  -9.5096993226685446e-03  -1.1243456954073902e-02  -1.4594688861801168e-02  -2.3168553116911513e-02  -3.1354006459049760e-02  -3.1627211115577897e-02  -3.1477619721951469e-02  -3.1504896975841322e-02  -3.1524732924932138e-02  -3.1510810780121100e-02  -3.1515723725502397e-02  -3.1508056642749506e-02  -3.1519029259233611e-02  -1.5772763237423534e-02  -1.8376273469359369e-02  -3.1745789019108031e-02  -3.1516796453248348e-02  -3.1530281446126476e-02  -3.1510916349207642e-02  -3.1508828254856597e-02  -3.1494895973833564e-02  -3.1511011955559096e-02  -3.1600851837929031e-02  -3.1663059309234409e-02  -3.1452040144680476e-02  -2.9579885536657399e-02  -1.5757427683032399e-02  -1.0414998759877890e-02  -8.9782517456535732e-03  -8.2037497765979472e-03  -7.5592496524828218e-03  -6.9629261741941699e-03  -6.4596448988140723e-03  -6.0853545775634401e-03  -5.8132258515734801e-03  -5.6095945618825985e-03  -5.4560424855904970e-03  -5.3449976683097762e-03  -5.2768474906270115e-03  -5.2550555568053169e-03  -5.2810586216782609e-03  -5.3521957262508794e-03  -5.4643430252797730e-03  -5.6200457610530979e-03  -5.8274517870165014e-03  -6.1061211239661108e-03  -6.4980931302253738e-03  -7.0426341777055819e-03  -7.6370641577675480e-03  -8.3851036704239608e-03  -9.2007107504965026e-03  -1.1607924811321264e-02  -1.6509167424154640e-02  -2.7479647918903546e-02  -3.1253633818204556e-02  -3.1668130204901133e-02  -3.1508727391788283e-02  -3.1492086430098813e-02  -3.1503188014443462e-02  -3.1503915701309733e-02  -3.1518425900693425e-02  -3.1527841877141333e-02  -3.1509053854393218e-02  -3.2011579686537485e-02  -1.6705507080324197e-02  -2.8545253436701282e-02  -4.6199847380930407e-02  -3.5682646878334015e-02  -3.1533548711035413e-02  -3.1517822648152789e-02  -3.1511552948677635e-02  -3.1510545031459773e-02  -3.1488978150150788e-02  -3.1487421895052908e-02  -3.1574198102742604e-02  -3.1749502517996686e-02  -3.1672087472488487e-02  -3.0796026414991105e-02  -1.9277696156636465e-02  -1.1560702056224656e-02  -8.8048120647479244e-03  -7.7555524791265646e-03  -6.9565368765101207e-03  -6.3373648794601096e-03  -5.9378600937796669e-03  -5.6672928248013375e-03  -5.4655506465883935e-03  -5.3114133255174204e-03  -5.1954918448482070e-03  -5.1216091946348352e-03  -5.0978284370717638e-03  -5.1271064018969933e-03  -5.2056415642069715e-03  -5.3212191288246327e-03  -5.4773315272772160e-03  -5.6882178188118549e-03  -5.9622346036093503e-03  -6.3924446699477619e-03  -7.1158338267980990e-03  -7.9563998621240486e-03  -9.6311253653627409e-03  -1.2373761440378212e-02  -1.8951608353709147e-02  -3.0687997312749168e-02  -3.1735020979549944e-02  -3.1651897865323936e-02  -3.1493995417284891e-02  -3.1503107016969248e-02  -3.1499771874049072e-02  -3.1504353695992832e-02  -3.1513574831041918e-02  -3.1508427976912036e-02  -3.1542210768234581e-02  -3.7752589593040169e-02  -4.7975290861066874e-02  -2.5134535937148567e-02  -3.5088425769852750e-02  -6.0558783778924576e-02  -4.6036365879051230e-02  -3.5324456344905220e-02  -3.1523659207354011e-02  -3.1512999192066626e-02  -3.1511907992275892e-02  -3.1511679725414708e-02  -3.1496865808186378e-02  -3.1487855970222252e-02  -3.1553487812429164e-02  -3.1714355828188892e-02  -3.1594653785150167e-02  -3.0733624894159393e-02  -2.6524291434906807e-02  -1.5955751736120252e-02  -1.0563026219942500e-02  -7.9983312404650446e-03  -6.7443619234949116e-03  -6.1304865787543657e-03  -5.7613048916438500e-03  -5.4990192673408916e-03  -5.3112340737102104e-03  -5.1704931859688540e-03  -5.0799429548562250e-03  -5.0519478127981242e-03  -5.0910094194749978e-03  -5.1956477212810187e-03  -5.3406823016957129e-03  -5.5449148512153141e-03  -5.8548577890564432e-03  -6.2595454772976017e-03  -7.0301027323101516e-03  -8.7889501076541549e-03  -1.1467532311226500e-02  -1.5981687819533921e-02  -2.5178324234777099e-02  -2.9736650485207992e-02  -3.1458625016635579e-02  -3.1581528497255096e-02  -3.1526578493599550e-02  -3.1512259011507636e-02  -3.1508423047037604e-02  -3.1507446316165019e-02  -3.1504375536943609e-02  -3.1504924692000995e-02  -3.1535695724480950e-02  -3.6373479607771798e-02  -4.6471170033141489e-02  -6.0512564927926511e-02  -3.3675666275087099e-02  -3.4022291430760319e-02  -6.2921709447168545e-02  -5.0487898110095783e-02  -3.9869643443914624e-02  -3.2864471401551021e-02  -3.1510667574977676e-02  -3.1505731161235812e-02  -3.1511376312775063e-02  -3.1518232329374105e-02  -3.1507308738999977e-02  -3.1487431542925708e-02  -3.1513818356730471e-02  -3.1620881400923347e-02  -3.1631794052409248e-02  -3.1393347871458414e-02  -3.1389087748653101e-02  -2.8018592082381125e-02  -1.9515322628460612e-02  -1.4434276242701608e-02  -1.1875112465773007e-02  -1.0249049880316977e-02  -9.2018270027020427e-03  -8.5488938130560462e-03  -8.1154348238909133e-03  -7.8817515146353441e-03  -7.8236534896388744e-03  -7.9322569412642544e-03  -8.2223977990834359e-03  -8.6437215746781541e-03  -9.3099626278258640e-03  -1.0420493511665192e-02  -1.1834343640063610e-02  -1.4338333407811283e-02  -1.9191600001418490e-02  -2.7315804541964601e-02  -3.1822252850358640e-02  -3.2020103838164067e-02  -3.1564778686659377e-02  -3.1351020051892421e-02  -3.1486453478807179e-02  -3.1507432041501547e-02  -3.1517301635565077e-02  -3.1511872690600969e-02  -3.1503509984067299e-02  -3.1498962067464033e-02  -3.1507456062723607e-02  -3.3363697147705276e-02  -3.9804257005000510e-02  -4.9836213655551180e-02  -6.2151050512817496e-02  -3.5187610328744685e-02  -2.5793680778069341e-02  -5.2495030503124297e-02  -4.5943508486272745e-02  -3.9553980099884416e-02  -3.4287677911699031e-02  -3.1567455971363491e-02  -3.1504282318376979e-02  -3.1498450275840618e-02  -3.1514111495563039e-02  -3.1523191829722234e-02  -3.1511999402898519e-02  -3.1481811241765502e-02  -3.1476707810953214e-02  -3.1547092776983636e-02  -3.1665377551010898e-02  -3.1738223011060170e-02  -3.1689295178617079e-02  -3.1363060218612397e-02  -3.0677064563061896e-02  -3.0958797976801306e-02  -3.0889123307506858e-02  -3.0116138131756072e-02  -2.9743045599207159e-02  -2.9087152003729841e-02  -2.8516826263320971e-02  -2.8306985077646021e-02  -2.8483482884690114e-02  -2.9031578845228497e-02  -2.9702687167074825e-02  -3.0054401778351589e-02  -3.0766963908365891e-02  -3.1160818041906076e-02  -3.0414184151521254e-02  -3.1202560467417758e-02  -3.1537731313685327e-02  -3.1740302669388397e-02  -3.1689854865731434e-02  -3.1537038614269222e-02  -3.1469321572595500e-02  -3.1489666780290297e-02  -3.1515112029864310e-02  -3.1514789926975838e-02  -3.1502337510101133e-02  -3.1498891907344964e-02  -3.1495052937615620e-02  -3.1592469820295087e-02  -3.4157456366962040e-02  -3.8794634118462158e-02  -4.4795619899377748e-02  -5.1215371812948392e-02  -2.9063082676892556e-02  -1.6751283524289406e-02  -3.6219859804603384e-02  -3.5953789283121228e-02  -3.4756023813814985e-02  -3.3056750911887416e-02  -3.1661562577846268e-02  -3.1505305015270477e-02  -3.1495802179578147e-02  -3.1498105617507252e-02  -3.1514757401797606e-02  -3.1524218365021978e-02  -3.1512592174990119e-02  -3.1483313980795395e-02  -3.1466408666470644e-02  -3.1493168245183646e-02  -3.1557577060373397e-02  -3.1631863052321602e-02  -3.1687035762880886e-02  -3.1648306385673640e-02  -3.1662046863011883e-02  -3.1761688992650000e-02  -3.1682588854870374e-02  -3.1640548551576865e-02  -3.1701391872175952e-02  -3.1707180471454224e-02  -3.1700584337091504e-02  -3.1706687656084503e-02  -3.1721687447015763e-02  -3.1717088805857580e-02  -3.1666580806218259e-02  -3.1683914949206519e-02  -