<?xml version="1.0"?>
<VTKFile type="UnstructuredGrid"  version="0.1"  >
<UnstructuredGrid>
<Piece  NumberOfPoints="2601" NumberOfCells="5000">
<Points>
<DataArray  type="Float64"  NumberOfComponents="3"  format="ascii">0 0 0  0.03 0 0  0.06 0 0  0.09 0 0  0.12 0 0  0.15 0 0  0.18 0 0  0.21 0 0  0.24 0 0  0.27 0 0  0.3 0 0  0.33 0 0  0.36 0 0  0.39 0 0  0.42 0 0  0.45 0 0  0.48 0 0  0.51 0 0  0.54 0 0  0.57 0 0  0.6 0 0  0.63 0 0  0.66 0 0  0.6899999999999999 0 0  0.72 0 0  0.75 0 0  0.78 0 0  0.8100000000000001 0 0  0.84 0 0  0.87 0 0  0.9 0 0  0.93 0 0  0.96 0 0  0.99 0 0  1.02 0 0  1.05 0 0  1.08 0 0  1.11 0 0  1.14 0 0  1.17 0 0  1.2 0 0  1.23 0 0  1.26 0 0  1.29 0 0  1.32 0 0  1.35 0 0  1.38 0 0  1.41 0 0  1.44 0 0  1.47 0 0  1.5 0 0  0 0.02 0  0.03 0.02 0  0.06 0.02 0  0.09 0.02 0  0.12 0.02 0  0.15 0.02 0  0.18 0.02 0  0.21 0.02 0  0.24 0.02 0  0.27 0.02 0  0.3 0.02 0  0.33 0.02 0  0.36 0.02 0  0.39 0.02 0  0.42 0.02 0  0.45 0.02 0  0.48 0.02 0  0.51 0.02 0  0.54 0.02 0  0.57 0.02 0  0.6 0.02 0  0.63 0.02 0  0.66 0.02 0  0.6899999999999999 0.02 0  0.72 0.02 0  0.75 0.02 0  0.78 0.02 0  0.8100000000000001 0.02 0  0.84 0.02 0  0.87 0.02 0  0.9 0.02 0  0.93 0.02 0  0.96 0.02 0  0.99 0.02 0  1.02 0.02 0  1.05 0.02 0  1.08 0.02 0  1.11 0.02 0  1.14 0.02 0  1.17 0.02 0  1.2 0.02 0  1.23 0.02 0  1.26 0.02 0  1.29 0.02 0  1.32 0.02 0  1.35 0.02 0  1.38 0.02 0  1.41 0.02 0  1.44 0.02 0  1.47 0.02 0  1.5 0.02 0  0 0.04 0  0.03 0.04 0  0.06 0.04 0  0.09 0.04 0  0.12 0.04 0  0.15 0.04 0  0.18 0.04 0  0.21 0.04 0  0.24 0.04 0  0.27 0.04 0  0.3 0.04 0  0.33 0.04 0  0.36 0.04 0  0.39 0.04 0  0.42 0.04 0  0.45 0.04 0  0.48 0.04 0  0.51 0.04 0  0.54 0.04 0  0.57 0.04 0  0.6 0.04 0  0.63 0.04 0  0.66 0.04 0  0.6899999999999999 0.04 0  0.72 0.04 0  0.75 0.04 0  0.78 0.04 0  0.8100000000000001 0.04 0  0.84 0.04 0  0.87 0.04 0  0.9 0.04 0  0.93 0.04 0  0.96 0.04 0  0.99 0.04 0  1.02 0.04 0  1.05 0.04 0  1.08 0.04 0  1.11 0.04 0  1.14 0.04 0  1.17 0.04 0  1.2 0.04 0  1.23 0.04 0  1.26 0.04 0  1.29 0.04 0  1.32 0.04 0  1.35 0.04 0  1.38 0.04 0  1.41 0.04 0  1.44 0.04 0  1.47 0.04 0  1.5 0.04 0  0 0.06 0  0.03 0.06 0  0.06 0.06 0  0.09 0.06 0  0.12 0.06 0  0.15 0.06 0  0.18 0.06 0  0.21 0.06 0  0.24 0.06 0  0.27 0.06 0  0.3 0.06 0  0.33 0.06 0  0.36 0.06 0  0.39 0.06 0  0.42 0.06 0  0.45 0.06 0  0.48 0.06 0  0.51 0.06 0  0.54 0.06 0  0.57 0.06 0  0.6 0.06 0  0.63 0.06 0  0.66 0.06 0  0.6899999999999999 0.06 0  0.72 0.06 0  0.75 0.06 0  0.78 0.06 0  0.8100000000000001 0.06 0  0.84 0.06 0  0.87 0.06 0  0.9 0.06 0  0.93 0.06 0  0.96 0.06 0  0.99 0.06 0  1.02 0.06 0  1.05 0.06 0  1.08 0.06 0  1.11 0.06 0  1.14 0.06 0  1.17 0.06 0  1.2 0.06 0  1.23 0.06 0  1.26 0.06 0  1.29 0.06 0  1.32 0.06 0  1.35 0.06 0  1.38 0.06 0  1.41 0.06 0  1.44 0.06 0  1.47 0.06 0  1.5 0.06 0  0 0.08 0  0.03 0.08 0  0.06 0.08 0  0.09 0.08 0  0.12 0.08 0  0.15 0.08 0  0.18 0.08 0  0.21 0.08 0  0.24 0.08 0  0.27 0.08 0  0.3 0.08 0  0.33 0.08 0  0.36 0.08 0  0.39 0.08 0  0.42 0.08 0  0.45 0.08 0  0.48 0.08 0  0.51 0.08 0  0.54 0.08 0  0.57 0.08 0  0.6 0.08 0  0.63 0.08 0  0.66 0.08 0  0.6899999999999999 0.08 0  0.72 0.08 0  0.75 0.08 0  0.78 0.08 0  0.8100000000000001 0.08 0  0.84 0.08 0  0.87 0.08 0  0.9 0.08 0  0.93 0.08 0  0.96 0.08 0  0.99 0.08 0  1.02 0.08 0  1.05 0.08 0  1.08 0.08 0  1.11 0.08 0  1.14 0.08 0  1.17 0.08 0  1.2 0.08 0  1.23 0.08 0  1.26 0.08 0  1.29 0.08 0  1.32 0.08 0  1.35 0.08 0  1.38 0.08 0  1.41 0.08 0  1.44 0.08 0  1.47 0.08 0  1.5 0.08 0  0 0.1 0  0.03 0.1 0  0.06 0.1 0  0.09 0.1 0  0.12 0.1 0  0.15 0.1 0  0.18 0.1 0  0.21 0.1 0  0.24 0.1 0  0.27 0.1 0  0.3 0.1 0  0.33 0.1 0  0.36 0.1 0  0.39 0.1 0  0.42 0.1 0  0.45 0.1 0  0.48 0.1 0  0.51 0.1 0  0.54 0.1 0  0.57 0.1 0  0.6 0.1 0  0.63 0.1 0  0.66 0.1 0  0.6899999999999999 0.1 0  0.72 0.1 0  0.75 0.1 0  0.78 0.1 0  0.8100000000000001 0.1 0  0.84 0.1 0  0.87 0.1 0  0.9 0.1 0  0.93 0.1 0  0.96 0.1 0  0.99 0.1 0  1.02 0.1 0  1.05 0.1 0  1.08 0.1 0  1.11 0.1 0  1.14 0.1 0  1.17 0.1 0  1.2 0.1 0  1.23 0.1 0  1.26 0.1 0  1.29 0.1 0  1.32 0.1 0  1.35 0.1 0  1.38 0.1 0  1.41 0.1 0  1.44 0.1 0  1.47 0.1 0  1.5 0.1 0  0 0.12 0  0.03 0.12 0  0.06 0.12 0  0.09 0.12 0  0.12 0.12 0  0.15 0.12 0  0.18 0.12 0  0.21 0.12 0  0.24 0.12 0  0.27 0.12 0  0.3 0.12 0  0.33 0.12 0  0.36 0.12 0  0.39 0.12 0  0.42 0.12 0  0.45 0.12 0  0.48 0.12 0  0.51 0.12 0  0.54 0.12 0  0.57 0.12 0  0.6 0.12 0  0.63 0.12 0  0.66 0.12 0  0.6899999999999999 0.12 0  0.72 0.12 0  0.75 0.12 0  0.78 0.12 0  0.8100000000000001 0.12 0  0.84 0.12 0  0.87 0.12 0  0.9 0.12 0  0.93 0.12 0  0.96 0.12 0  0.99 0.12 0  1.02 0.12 0  1.05 0.12 0  1.08 0.12 0  1.11 0.12 0  1.14 0.12 0  1.17 0.12 0  1.2 0.12 0  1.23 0.12 0  1.26 0.12 0  1.29 0.12 0  1.32 0.12 0  1.35 0.12 0  1.38 0.12 0  1.41 0.12 0  1.44 0.12 0  1.47 0.12 0  1.5 0.12 0  0 0.14 0  0.03 0.14 0  0.06 0.14 0  0.09 0.14 0  0.12 0.14 0  0.15 0.14 0  0.18 0.14 0  0.21 0.14 0  0.24 0.14 0  0.27 0.14 0  0.3 0.14 0  0.33 0.14 0  0.36 0.14 0  0.39 0.14 0  0.42 0.14 0  0.45 0.14 0  0.48 0.14 0  0.51 0.14 0  0.54 0.14 0  0.57 0.14 0  0.6 0.14 0  0.63 0.14 0  0.66 0.14 0  0.6899999999999999 0.14 0  0.72 0.14 0  0.75 0.14 0  0.78 0.14 0  0.8100000000000001 0.14 0  0.84 0.14 0  0.87 0.14 0  0.9 0.14 0  0.93 0.14 0  0.96 0.14 0  0.99 0.14 0  1.02 0.14 0  1.05 0.14 0  1.08 0.14 0  1.11 0.14 0  1.14 0.14 0  1.17 0.14 0  1.2 0.14 0  1.23 0.14 0  1.26 0.14 0  1.29 0.14 0  1.32 0.14 0  1.35 0.14 0  1.38 0.14 0  1.41 0.14 0  1.44 0.14 0  1.47 0.14 0  1.5 0.14 0  0 0.16 0  0.03 0.16 0  0.06 0.16 0  0.09 0.16 0  0.12 0.16 0  0.15 0.16 0  0.18 0.16 0  0.21 0.16 0  0.24 0.16 0  0.27 0.16 0  0.3 0.16 0  0.33 0.16 0  0.36 0.16 0  0.39 0.16 0  0.42 0.16 0  0.45 0.16 0  0.48 0.16 0  0.51 0.16 0  0.54 0.16 0  0.57 0.16 0  0.6 0.16 0  0.63 0.16 0  0.66 0.16 0  0.6899999999999999 0.16 0  0.72 0.16 0  0.75 0.16 0  0.78 0.16 0  0.8100000000000001 0.16 0  0.84 0.16 0  0.87 0.16 0  0.9 0.16 0  0.93 0.16 0  0.96 0.16 0  0.99 0.16 0  1.02 0.16 0  1.05 0.16 0  1.08 0.16 0  1.11 0.16 0  1.14 0.16 0  1.17 0.16 0  1.2 0.16 0  1.23 0.16 0  1.26 0.16 0  1.29 0.16 0  1.32 0.16 0  1.35 0.16 0  1.38 0.16 0  1.41 0.16 0  1.44 0.16 0  1.47 0.16 0  1.5 0.16 0  0 0.18 0  0.03 0.18 0  0.06 0.18 0  0.09 0.18 0  0.12 0.18 0  0.15 0.18 0  0.18 0.18 0  0.21 0.18 0  0.24 0.18 0  0.27 0.18 0  0.3 0.18 0  0.33 0.18 0  0.36 0.18 0  0.39 0.18 0  0.42 0.18 0  0.45 0.18 0  0.48 0.18 0  0.51 0.18 0  0.54 0.18 0  0.57 0.18 0  0.6 0.18 0  0.63 0.18 0  0.66 0.18 0  0.6899999999999999 0.18 0  0.72 0.18 0  0.75 0.18 0  0.78 0.18 0  0.8100000000000001 0.18 0  0.84 0.18 0  0.87 0.18 0  0.9 0.18 0  0.93 0.18 0  0.96 0.18 0  0.99 0.18 0  1.02 0.18 0  1.05 0.18 0  1.08 0.18 0  1.11 0.18 0  1.14 0.18 0  1.17 0.18 0  1.2 0.18 0  1.23 0.18 0  1.26 0.18 0  1.29 0.18 0  1.32 0.18 0  1.35 0.18 0  1.38 0.18 0  1.41 0.18 0  1.44 0.18 0  1.47 0.18 0  1.5 0.18 0  0 0.2 0  0.03 0.2 0  0.06 0.2 0  0.09 0.2 0  0.12 0.2 0  0.15 0.2 0  0.18 0.2 0  0.21 0.2 0  0.24 0.2 0  0.27 0.2 0  0.3 0.2 0  0.33 0.2 0  0.36 0.2 0  0.39 0.2 0  0.42 0.2 0  0.45 0.2 0  0.48 0.2 0  0.51 0.2 0  0.54 0.2 0  0.57 0.2 0  0.6 0.2 0  0.63 0.2 0  0.66 0.2 0  0.6899999999999999 0.2 0  0.72 0.2 0  0.75 0.2 0  0.78 0.2 0  0.8100000000000001 0.2 0  0.84 0.2 0  0.87 0.2 0  0.9 0.2 0  0.93 0.2 0  0.96 0.2 0  0.99 0.2 0  1.02 0.2 0  1.05 0.2 0  1.08 0.2 0  1.11 0.2 0  1.14 0.2 0  1.17 0.2 0  1.2 0.2 0  1.23 0.2 0  1.26 0.2 0  1.29 0.2 0  1.32 0.2 0  1.35 0.2 0  1.38 0.2 0  1.41 0.2 0  1.44 0.2 0  1.47 0.2 0  1.5 0.2 0  0 0.22 0  0.03 0.22 0  0.06 0.22 0  0.09 0.22 0  0.12 0.22 0  0.15 0.22 0  0.18 0.22 0  0.21 0.22 0  0.24 0.22 0  0.27 0.22 0  0.3 0.22 0  0.33 0.22 0  0.36 0.22 0  0.39 0.22 0  0.42 0.22 0  0.45 0.22 0  0.48 0.22 0  0.51 0.22 0  0.54 0.22 0  0.57 0.22 0  0.6 0.22 0  0.63 0.22 0  0.66 0.22 0  0.6899999999999999 0.22 0  0.72 0.22 0  0.75 0.22 0  0.78 0.22 0  0.8100000000000001 0.22 0  0.84 0.22 0  0.87 0.22 0  0.9 0.22 0  0.93 0.22 0  0.96 0.22 0  0.99 0.22 0  1.02 0.22 0  1.05 0.22 0  1.08 0.22 0  1.11 0.22 0  1.14 0.22 0  1.17 0.22 0  1.2 0.22 0  1.23 0.22 0  1.26 0.22 0  1.29 0.22 0  1.32 0.22 0  1.35 0.22 0  1.38 0.22 0  1.41 0.22 0  1.44 0.22 0  1.47 0.22 0  1.5 0.22 0  0 0.24 0  0.03 0.24 0  0.06 0.24 0  0.09 0.24 0  0.12 0.24 0  0.15 0.24 0  0.18 0.24 0  0.21 0.24 0  0.24 0.24 0  0.27 0.24 0  0.3 0.24 0  0.33 0.24 0  0.36 0.24 0  0.39 0.24 0  0.42 0.24 0  0.45 0.24 0  0.48 0.24 0  0.51 0.24 0  0.54 0.24 0  0.57 0.24 0  0.6 0.24 0  0.63 0.24 0  0.66 0.24 0  0.6899999999999999 0.24 0  0.72 0.24 0  0.75 0.24 0  0.78 0.24 0  0.8100000000000001 0.24 0  0.84 0.24 0  0.87 0.24 0  0.9 0.24 0  0.93 0.24 0  0.96 0.24 0  0.99 0.24 0  1.02 0.24 0  1.05 0.24 0  1.08 0.24 0  1.11 0.24 0  1.14 0.24 0  1.17 0.24 0  1.2 0.24 0  1.23 0.24 0  1.26 0.24 0  1.29 0.24 0  1.32 0.24 0  1.35 0.24 0  1.38 0.24 0  1.41 0.24 0  1.44 0.24 0  1.47 0.24 0  1.5 0.24 0  0 0.26 0  0.03 0.26 0  0.06 0.26 0  0.09 0.26 0  0.12 0.26 0  0.15 0.26 0  0.18 0.26 0  0.21 0.26 0  0.24 0.26 0  0.27 0.26 0  0.3 0.26 0  0.33 0.26 0  0.36 0.26 0  0.39 0.26 0  0.42 0.26 0  0.45 0.26 0  0.48 0.26 0  0.51 0.26 0  0.54 0.26 0  0.57 0.26 0  0.6 0.26 0  0.63 0.26 0  0.66 0.26 0  0.6899999999999999 0.26 0  0.72 0.26 0  0.75 0.26 0  0.78 0.26 0  0.8100000000000001 0.26 0  0.84 0.26 0  0.87 0.26 0  0.9 0.26 0  0.93 0.26 0  0.96 0.26 0  0.99 0.26 0  1.02 0.26 0  1.05 0.26 0  1.08 0.26 0  1.11 0.26 0  1.14 0.26 0  1.17 0.26 0  1.2 0.26 0  1.23 0.26 0  1.26 0.26 0  1.29 0.26 0  1.32 0.26 0  1.35 0.26 0  1.38 0.26 0  1.41 0.26 0  1.44 0.26 0  1.47 0.26 0  1.5 0.26 0  0 0.28 0  0.03 0.28 0  0.06 0.28 0  0.09 0.28 0  0.12 0.28 0  0.15 0.28 0  0.18 0.28 0  0.21 0.28 0  0.24 0.28 0  0.27 0.28 0  0.3 0.28 0  0.33 0.28 0  0.36 0.28 0  0.39 0.28 0  0.42 0.28 0  0.45 0.28 0  0.48 0.28 0  0.51 0.28 0  0.54 0.28 0  0.57 0.28 0  0.6 0.28 0  0.63 0.28 0  0.66 0.28 0  0.6899999999999999 0.28 0  0.72 0.28 0  0.75 0.28 0  0.78 0.28 0  0.8100000000000001 0.28 0  0.84 0.28 0  0.87 0.28 0  0.9 0.28 0  0.93 0.28 0  0.96 0.28 0  0.99 0.28 0  1.02 0.28
[...]
<PointData  Scalars="sensitivity"> 
<DataArray  type="Float64"  Name="sensitivity"  format="ascii">-3.0129525813345955e-07  -6.7939399254575233e-06  -2.8953599178549382e-05  -7.3607195672639728e-05  -1.3942898328925572e-04  -2.1659769798539877e-04  -2.9422361609050390e-04  -3.6587111169634156e-04  -4.2940254217945601e-04  -4.8421755598128857e-04  -5.2930501651419896e-04  -5.6331888886898595e-04  -5.8580966345680942e-04  -5.9806487916105519e-04  -6.0289035065683432e-04  -6.0374455513043199e-04  -6.0366112333397207e-04  -6.0428125723443907e-04  -6.0574062576802552e-04  -6.0752462878801170e-04  -6.0921887013873658e-04  -6.1055491059261880e-04  -6.1132486658740839e-04  -6.1154705457522329e-04  -6.1152350452591420e-04  -6.1155699007947898e-04  -6.1164914831704552e-04  -6.1156049808164985e-04  -6.1115865520781887e-04  -6.1060984607395441e-04  -6.1018685332978821e-04  -6.1003381323638715e-04  -6.1023931793412352e-04  -6.1092733690945231e-04  -6.1192172053668335e-04  -6.1214709503880458e-04  -6.0925772707524635e-04  -5.9984342906233283e-04  -5.8045476035239682e-04  -5.4918093158225819e-04  -5.0647559541046837e-04  -4.5407113784561059e-04  -3.9296926008013328e-04  -3.2306904967059153e-04  -2.4544266054051341e-04  -1.6542230106560105e-04  -9.3478413584170480e-05  -4.0948576186816244e-05  -1.2226468400573510e-05  -1.2728185202650001e-06  -2.9001288236474530e-09  -3.8775711321855551e-06  -7.1854677580230930e-05  -3.0101377233821843e-04  -7.8433450505320144e-04  -1.5172894114163574e-03  -2.3826143108354359e-03  -3.2447460709876907e-03  -4.0246276946029396e-03  -4.7007181853260813e-03  -5.2731996641122601e-03  -5.7368059082671596e-03  -6.0792185449192763e-03  -6.2953984576164966e-03  -6.3987731000235267e-03  -6.4201499281503257e-03  -6.3989216305580044e-03  -6.3717992171415097e-03  -6.3606473276744055e-03  -6.3680352518213426e-03  -6.3860939126430512e-03  -6.4073236394969982e-03  -6.4266483234174769e-03  -6.4399934765780546e-03  -6.4459840264428081e-03  -6.4473627299105156e-03  -6.4480751506875754e-03  -6.4490178214514273e-03  -6.4477178727669286e-03  -6.4423285737340540e-03  -6.4348169007876418e-03  -6.4292688150773356e-03  -6.4284366449026565e-03  -6.4340676880139738e-03  -6.4489513980873735e-03  -6.4742636797829860e-03  -6.5026207178416947e-03  -6.5126466561169554e-03  -6.4690763272124488e-03  -6.3315376849174187e-03  -6.0718581431119540e-03  -5.6873669968193217e-03  -5.1931870381183125e-03  -4.5980683893869908e-03  -3.8927719457235899e-03  -3.0713087384406116e-03  -2.1727120072794212e-03  -1.3067200148417183e-03  -6.2354424240185669e-04  -2.1646529336811558e-04  -4.0981899284364368e-05  -8.8369234442931238e-07  -1.2353169040770915e-05  -1.6685185567275610e-04  -5.9106040895330354e-04  -1.4660389851389025e-03  -2.7658844687063352e-03  -4.2359360248257752e-03  -5.6223124284207294e-03  -6.8074792868740739e-03  -7.7894411728959877e-03  -8.5991750915273679e-03  -9.2445803090016321e-03  -9.7085947412721644e-03  -9.9806725914737705e-03  -1.0081195989156480e-02  -1.0059759214812371e-02  -9.9792252952467676e-03  -9.8990617747007747e-03  -9.8548453664559811e-03  -9.8481261461101522e-03  -9.8632262319776343e-03  -9.8880232425400498e-03  -9.9148055892867033e-03  -9.9351092513725366e-03  -9.9441751574213845e-03  -9.9458844200917690e-03  -9.9477538384011317e-03  -9.9518568473216645e-03  -9.9530792052299200e-03  -9.9468099820828517e-03  -9.9363396943710717e-03  -9.9301075060764122e-03  -9.9337254722704008e-03  -9.9501519099537260e-03  -9.9856753664194550e-03  -1.0046649388659673e-02  -1.0126604660194072e-02  -1.0196101453777119e-02  -1.0201323247529894e-02  -1.0075797033164626e-02  -9.7692642435382310e-03  -9.2746785534831167e-03  -8.6175820437557008e-03  -7.8091997685305970e-03  -6.8148587786461641e-03  -5.5846203210745925e-03  -4.1355183921975630e-03  -2.6211231371864718e-03  -1.3286376321889806e-03  -5.0687714030557042e-04  -1.2894291771621454e-04  -6.1326498588548373e-06  -2.3141052335051421e-05  -3.1464169462298072e-04  -1.0198615885878058e-03  -2.3444079420534428e-03  -4.1236398717591077e-03  -5.9134541186674260e-03  -7.4073259359542613e-03  -8.5471808601959593e-03  -9.4161555268470424e-03  -1.0105671006170222e-02  -1.0647606977289573e-02  -1.1021268383096290e-02  -1.1205656011100301e-02  -1.1219434326539910e-02  -1.1118019903627350e-02  -1.0969242011594927e-02  -1.0838230476118722e-02  -1.0763307250392382e-02  -1.0737034528356657e-02  -1.0734036145539496e-02  -1.0743374327623591e-02  -1.0760490939256698e-02  -1.0773877615760047e-02  -1.0775321678661192e-02  -1.0770579775073633e-02  -1.0771418137020147e-02  -1.0780835586118621e-02  -1.0790011086376387e-02  -1.0790415882172742e-02  -1.0786336527714411e-02  -1.0790554732676453e-02  -1.0809767543288475e-02  -1.0845067831203935e-02  -1.0905407888258578e-02  -1.1004824694666402e-02  -1.1142817726279244e-02  -1.1290959911305371e-02  -1.1390140243850122e-02  -1.1360203453593450e-02  -1.1137757076463084e-02  -1.0723655285663864e-02  -1.0171891068141039e-02  -9.5059935770105356e-03  -8.6519681551601810e-03  -7.4714577548693848e-03  -5.8790052941221603e-03  -3.9737888434826811e-03  -2.1400254179169539e-03  -8.5858089531314552e-04  -2.4019904152970889e-04  -1.4918643958461952e-05  -2.9624845923556995e-05  -5.7243807086445860e-04  -2.0496095599936925e-03  -4.4172117423925579e-03  -6.9614779540542069e-03  -8.9957737095625653e-03  -1.0331997121841551e-02  -1.1132054423370346e-02  -1.1652503931646279e-02  -1.2054114446385072e-02  -1.2358169144387858e-02  -1.2513622589343576e-02  -1.2488540403107014e-02  -1.2310257395713002e-02  -1.2046714176761432e-02  -1.1767049237773461e-02  -1.1538410899321297e-02  -1.1406080373454674e-02  -1.1345211519577372e-02  -1.1308837243407253e-02  -1.1289107253045539e-02  -1.1288764077036580e-02  -1.1290024799543287e-02  -1.1277967899918825e-02  -1.1261846333096655e-02  -1.1260829780241994e-02  -1.1279547200769636e-02  -1.1302968846006928e-02  -1.1315584964567920e-02  -1.1323189353098017e-02  -1.1346739738047774e-02  -1.1394776159130562e-02  -1.1463153377209916e-02  -1.1564672893583709e-02  -1.1728629351849606e-02  -1.1967121444618112e-02  -1.2257054550554031e-02  -1.2538190430928050e-02  -1.2712393068695097e-02  -1.2681152740062807e-02  -1.2434727911187686e-02  -1.2086591588713051e-02  -1.1742196404751069e-02  -1.1320922428709917e-02  -1.0565123953954146e-02  -9.1842387762407062e-03  -6.9775509160495469e-03  -4.1714971705842027e-03  -1.7007199043918555e-03  -4.0540760039076531e-04  -2.2348711649789025e-05  -3.2460846105100043e-05  -1.2229301437103731e-03  -5.0112826107033062e-03  -9.5026575380110240e-03  -1.2546236812222385e-02  -1.4021778165121120e-02  -1.4458070830509711e-02  -1.4436575585629045e-02  -1.4362122112373563e-02  -1.4402565726421282e-02  -1.4471579149764349e-02  -1.4376666266823884e-02  -1.4049657694952030e-02  -1.3565972115633210e-02  -1.3045079060795193e-02  -1.2567782680063130e-02  -1.2185924881723997e-02  -1.1967995575028666e-02  -1.1864624612618616e-02  -1.1780269294649393e-02  -1.1712674995792052e-02  -1.1682919784223249e-02  -1.1663098696878278e-02  -1.1627213770995364e-02  -1.1591068351835961e-02  -1.1585629572498955e-02  -1.1617748442759659e-02  -1.1662026076261449e-02  -1.1689889847782521e-02  -1.1707639584739301e-02  -1.1751327274944557e-02  -1.1836119710737992e-02  -1.1947649171232743e-02  -1.2100178770116999e-02  -1.2345560315141802e-02  -1.2715482786048995e-02  -1.3193462429287754e-02  -1.3718115881118625e-02  -1.4172353965614833e-02  -1.4417314837454908e-02  -1.4432360490574538e-02  -1.4406600415259161e-02  -1.4558964797299670e-02  -1.4839323598110120e-02  -1.4902838444704478e-02  -1.4356932432072117e-02  -1.2781481612205306e-02  -9.3780816702785600e-03  -4.3008904452256106e-03  -7.7024716509965080e-04  -2.3238680083800886e-05  -1.0662584035334544e-04  -3.8104370941700800e-03  -1.2560002293054864e-02  -1.8985705070786084e-02  -2.0943812391514400e-02  -2.1142063766540899e-02  -2.0262559241642414e-02  -1.8866753986004282e-02  -1.7607937873112538e-02  -1.6803143928086173e-02  -1.6383878818402177e-02  -1.6045101935632106e-02  -1.5533033896314916e-02  -1.4827879314412849e-02  -1.4044194745162714e-02  -1.3343027052047833e-02  -1.2763488458368727e-02  -1.2431766135566341e-02  -1.2303273431421308e-02  -1.2198109520504164e-02  -1.2099267209350157e-02  -1.2051748837038931e-02  -1.2012278508282084e-02  -1.1942042186269637e-02  -1.1872203541707078e-02  -1.1853562396831730e-02  -1.1897514280948294e-02  -1.1964615087090805e-02  -1.2005066078766552e-02  -1.2022039010577293e-02  -1.2073842855789756e-02  -1.2192518147621711e-02  -1.2355835557269291e-02  -1.2580769625646963e-02  -1.2934380703579117e-02  -1.3444601477415169e-02  -1.4092091510283813e-02  -1.4832141612267610e-02  -1.5558290161100297e-02  -1.6138007032494735e-02  -1.6596149877657562e-02  -1.7202113480534444e-02  -1.8143197037644377e-02  -1.9259620796606796e-02  -2.0259780672538721e-02  -2.1028241191118374e-02  -2.1022088960559550e-02  -1.8886470685407074e-02  -1.3052388937601285e-02  -2.9070428947764750e-03  -2.5892211646090138e-05  -7.5358109241522523e-04  -1.3149138566540423e-02  -2.5540025730266799e-02  -2.9127258600686750e-02  -2.8856926955024374e-02  -2.7862835778821805e-02  -2.6700093680245725e-02  -2.4946918561860074e-02  -2.2765975775442295e-02  -2.0977074967396730e-02  -1.9639804670817232e-02  -1.8473381655246490e-02  -1.7312128887378153e-02  -1.6222975738186353e-02  -1.5233642201250647e-02  -1.4357337068681524e-02  -1.3562194704123504e-02  -1.3019892052722620e-02  -1.2679121772940413e-02  -1.2408132708737760e-02  -1.2273411663484217e-02  -1.2246069809736420e-02  -1.2215536084006814e-02  -1.2123376227576359e-02  -1.2022724968504194e-02  -1.1990087147975115e-02  -1.2046804923312032e-02  -1.2144852305732619e-02  -1.2214016615938655e-02  -1.2257641540804760e-02  -1.2368948959751146e-02  -1.2579893469341978e-02  -1.2814094533178333e-02  -1.3106852299278661e-02  -1.3614728985621669e-02  -1.4391281967881914e-02  -1.5374270890810017e-02  -1.6514876035564764e-02  -1.7749039314825899e-02  -1.8911581970365198e-02  -1.9892025383039996e-02  -2.1030907471588312e-02  -2.2648312069345502e-02  -2.4355025415882789e-02  -2.5959593082827727e-02  -2.7520535265757283e-02  -2.8898461835130018e-02  -2.9566687627098038e-02  -2.7810292439028952e-02  -1.2470399298856769e-02  -1.3434530591079774e-04  -5.0892310503942717e-03  -2.5041474188016315e-02  -3.5507197588559969e-02  -3.4925780583035276e-02  -3.5117910655750192e-02  -3.2835003091314395e-02  -2.8671244521302992e-02  -2.6117371006657588e-02  -2.4645973930267819e-02  -2.4299647086591838e-02  -2.4435009402545192e-02  -2.3552310457718020e-02  -2.1507981064041330e-02  -1.9017998479710144e-02  -1.7043307235590912e-02  -1.5734953526859441e-02  -1.4427639685165708e-02  -1.3932473525310343e-02  -1.3820091039858736e-02  -1.2822815690627348e-02  -1.2360927128116730e-02  -1.2283816879910784e-02  -1.2217566243658468e-02  -1.2080112646516740e-02  -1.1958689350269945e-02  -1.1937633866051792e-02  -1.2033446174363555e-02  -1.2185554719463570e-02  -1.2302934738861621e-02  -1.2393559537830643e-02  -1.2620006978878454e-02  -1.3102804942951931e-02  -1.3602009016369624e-02  -1.4007421669538106e-02  -1.4651476888703279e-02  -1.5762899450344630e-02  -1.7362879915081505e-02  -1.9367157910912473e-02  -2.1640556971701388e-02  -2.3721048158414765e-02  -2.4770241431836180e-02  -2.4444075920435990e-02  -2.4737595414441729e-02  -2.6852763731140202e-02  -2.9753628293823112e-02  -3.1973619719601665e-02  -3.2189712259968015e-02  -3.1259961118771239e-02  -3.2371048344398773e-02  -3.0603140520852626e-02  -3.6054731638252274e-03  -1.5478870411927900e-02  -3.1538464007925843e-02  -3.2643889626007609e-02  -3.3463470051432798e-02  -3.5231939404905696e-02  -3.6717764881090575e-02  -3.5174379937606318e-02  -3.2102773166563368e-02  -2.9199911206822263e-02  -2.7455253737968699e-02  -2.6881715738308515e-02  -2.5985947184275934e-02  -2.4329837651602449e-02  -2.2543890637241736e-02  -2.0806702951633730e-02  -1.9212983622911479e-02  -1.6975486685191846e-02  -1.3813046126995633e-02  -1.5246945394159720e-02  -1.4112788406315777e-02  -1.3153335410843195e-02  -1.3068458283059841e-02  -1.2895913635721559e-02  -1.2558967702730279e-02  -1.2321024438156391e-02  -1.2296852124902509e-02  -1.2479915356544193e-02  -1.2763825382698270e-02  -1.2946092443016595e-02  -1.2996429208180190e-02  -1.3170559991554974e-02  -1.3754951712661523e-02  -1.4712834748905765e-02  -1.5565580031199868e-02  -1.6708958175098140e-02  -1.8592823575335322e-02  -2.0848060496544987e-02  -2.3063394972388993e-02  -2.5160856350325507e-02  -2.6866242285197805e-02  -2.7835271342465273e-02  -2.8467016648137822e-02  -2.9753740081242878e-02  -3.2143019568664354e-02  -3.4548093117926053e-02  -3.5345466341635039e-02  -3.4154775804398296e-02  -3.1879792667782299e-02  -3.0786660772957625e-02  -3.2207497921357055e-02  -1.5874952594935127e-02  -2.2823966034004134e-02  -3.8173535763655696e-02  -3.4223105747348166e-02  -3.2868034835532182e-02  -3.3620548658247346e-02  -3.5134790273426079e-02  -3.5772130001329734e-02  -3.4647922550072610e-02  -3.2467619974121620e-02  -3.0771724442975011e-02  -3.0306151363920831e-02  -2.9892839796443839e-02  -2.8014014631848029e-02  -2.5121285183329699e-02  -2.2270326835937590e-02  -2.0233578381120942e-02  -1.9497087223325237e-02  -1.8774471859724879e-02  -1.7800458903754764e-02  -1.7200600970606921e-02  -1.5596293581373521e-02  -1.5388961893898972e-02  -1.4943195346682153e-02  -1.4049477088777049e-02  -1.3435314364311455e-02  -1.3277628799486602e-02  -1.3522508437686024e-02  -1.4070429048886043e-02  -1.4619899978000728e-02  -1.4852498380894046e-02  -1.5119156633411296e-02  -1.5898187532330313e-02  -1.7161892590966097e-02  -1.8391401902288940e-02  -1.9496233400336852e-02  -2.1149060459049372e-02  -2.3639495350192795e-02  -2.6552443246323700e-02  -2.9053680181803293e-02  -3.0425619787070254e-02  -3.0974746719775802e-02  -3.1724759908569634e-02  -3.2970230923149907e-02  -3.4311377133654397e-02  -3.5160847689391116e-02  -3.5044202089872890e-02  -3.4205310806764144e-02  -3.3557303805807508e-02  -3.4451640413568164e-02  -3.8647254068644429e-02  -2.1525499124030564e-02  -3.1995709010914711e-02  -5.1959821010728643e-02  -4.2296641905837359e-02  -3.6975444573012113e-02  -3.4684931096045105e-02  -3.4218676538547231e-02  -3.4291608753953005e-02  -3.4089245895093073e-02  -3.3094688644622776e-02  -3.1877677555623360e-02  -3.1400877597415978e-02  -3.1641337138359371e-02  -3.1327197583631103e-02  -2.9372338478572454e-02  -2.6251943658767912e-02  -2.3190640327637724e-02  -2.1066855057229921e-02  -1.9933329697221964e-02  -1.8960047910465808e-02  -1.7882830352035688e-02  -1.7205792850408415e-02  -1.7133845408530374e-02  -1.6978654748024957e-02  -1.6352765030494126e-02  -1.5712132998385721e-02  -1.5446910942827564e-02  -1.5593081468510945e-02  -1.6084543000073045e-02  -1.6750053302385361e-02  -1.7281796438913560e-02  -1.7620791675529653e-02  -1.8058744728171549e-02  -1.8855881068119452e-02  -2.0095385160703607e-02  -2.1795055089212808e-02  -2.4033497597741486e-02  -2.6691654486467972e-02  -2.9197328249294469e-02  -3.0923678346427556e-02  -3.1845325918604075e-02  -3.2479540677347901e-02  -3.3201374429561323e-02  -3.3931117308523225e-02  -3.4363792505682257e-02  -3.4439223834208263e-02  -3.4504299422058474e-02  -3.5293591984485749e-02  -3.7960100255555788e-02  -4.3530701719144145e-02  -5.3046291274572520e-02  -2.9566399471606240e-02  -3.7655090328664750e-02  -6.3664682950414497e-02  -5.0423641739578480e-02  -4.2416672130034548e-02  -3.8055557924495449e-02  -3.5980769563259685e-02  -3.5002489072485467e-02  -3.4326346827898993e-02  -3.3638353328871586e-02  -3.2800809369280981e-02  -3.2121621419975821e-02  -3.1877285399929123e-02  -3.1857513952302283e-02  -3.1366239256272500e-02  -2.9882640911718016e-02  -2.7674898276347972e-02  -2.5400524873924222e-02  -2.3341051365482202e-02  -2.1432672546189316e-02  -1.9764474956173905e-02  -1.8747159314705997e-02  -1.8392648203051955e-02  -1.8057369163833065e-02  -1.7549018738889005e-02  -1.7130621928167649e-02  -1.6996493548942039e-02  -1.7171227504587046e-02  -1.7614556560795285e-02  -1.8264822140136375e-02  -1.9022748132980216e-02  -1.9819109298615960e-02  -2.0698681558497398e-02  -2.1773034013350529e-02  -2.3141784254679429e-02  -2.4837248895339798e-02  -2.6760994329309312e-02  -2.8707121619432844e-02  -3.0446090103129181e-02  -3.1785424406559744e-02  -3.2696489031606032e-02  -3.3333431693556889e-02  -3.3850535744698762e-02  -3.4304427260343238e-02  -3.4743683098182952e-02  -3.5288209642505702e-02  -3.6257810760849545e-02  -3.8418261345116458e-02  -4.2805056655839453e-02  -5.0915419812714940e-02  -6.3966216201815237e-02  -3.6554001032099055e-02  -3.6713926803352351e-02  -6.5101595518099839e-02  -5.2756675263592887e-02  -4.4859754554942136e-02  -4.0519854069333151e-02  -3.8154846273589040e-02  -3.6765780189273754e-02  -3.5717206919609924e-02  -3.4824068960776978e-02  -3.4026091407404362e-02  -3.3296738973729603e-02  -3.2690501155340564e-02  -3.2231973391209125e-02  -3.1831313749144004e-02  -3.1297714820120268e-02  -3.0486162283097282e-02  -2.9321627255146310e-02  -2.7752761248953862e-02  -2.5907691389938255e-02  -2.4179966001859059e-02  -2.2944357315058946e-02  -2.2174763812566212e-02  -2.1503267283532169e-02  -2.0846145580733607e-02  -2.0423006482771552e-02  -2.0362844324545094e-02  -2.0644050713441511e-02  -2.1197428327510173e-02  -2.1942361661289093e-02  -2.2797886033153542e-02  -2.3710696138134230e-02  -2.4652399135096675e-02  -2.5601452325943817e-02  -2.6578623218764960e-02  -2.7686701413420233e-02  -2.9014991905636337e-02  -3.0483489036661530e-02  -3.1848611367038558e-02  -3.2893239426476928e-02  -3.3600608335951389e-02  -3.4115909814165915e-02  -3.4608320069060595e-02  -3.5198050887243898e-02  -3.5970292728606974e-02  -3.6957087751213910e-02  -3.8286482955954743e-02  -4.0576024716739399e-02  -4.4833037070191359e-02  -5.2423990296567032e-02  -6.4585477798109400e-02  -3.7708977636545835e-02  -2.9812252870716347e-02  -5.5575443492662746e-02  -4.8026463183430387e-02  -4.3195313837317666e-02  -4.0523313655112574e-02  -3.9045974201254476e-02  -3.7965899436050277e-02  -3.6948823428438415e-02  -3.6010185242317146e-02  -3.5219632574469160e-02  -3.4541245502521703e-02  -3.3913437612940661e-02  -3.3293055384551358e-02  -3.2691848536639451e-02  -3.2161741982879737e-02  -3.1728380749874094e-02  -3.1275291231286542e-02  -3.0570762068996754e-02  -2.9590353967550879e-02  -2.8641091959999306e-02  -2.7972905267144851e-02  -2.7500562450191692e-02  -2.7001077135773335e-02  -2.6456065303013358e-02  -2.6060411321450656e-02  -2.5954731879792740e-02  -2.6129465828881409e-02  -2.6503514396121065e-02  -2.6987629040536948e-02  -2.7509045980058509e-02  -2.8019804082994169e-02  -2.8493065603416929e-02  -2.8944023323070830e-02  -2.9464206009443612e-02  -3.0181561368833230e-02  -3.1143762436540445e-02  -3.2239364631373717e-02  -3.3249807774943942e-02  -3.4016791576938835e-02  -3.4554767670062290e-02  -3.4999481639625650e-02  -3.5509402343203579e-02  -3.6198259296490051e-02  -3.7101809311246209e-02  -3.8136434092297666e-02  -3.9170341673534344e-02  -4.0444074683899857e-02  -4.2780356237734407e-02  -4.7134216697058882e-02  -5.4520669416082135e-02  -3.2250310449979454e-02  -2.1214758672497520e-02  -4.0853613592581252e-02  -3.9129234800811680e-02  -3.8787042774283166e-02  -3.8748798256382416e-02  -3.8604737006894679e-02  -3.8214447202166872e-02  -3.7566006139209837e-02  -3.6812656203477907e-02  -3.6115870008044039e-02  -3.5521241827862413e-02  -3.4982597423051584e-02  -3.4429301470121458e-02  -3.3838082803025978e-02  -3.3259202833844821e-02  -3.2765593049527184e-02  -3.2347802479831586e-02  -3.1897845112381439e-02  -3.1400526798513316e-02  -3.1048776917087028e-02  -3.1004712633292499e-02  -3.1166986317577656e-02  -3.1306417157456974e-02  -3.1314014698612259e-02  -3.1230869890084612e-02  -3.1122193920554816e-02  -3.1010100061630075e-02  -3.0906473383890968e-02  -3.0845248072306226e-02  -3.0866777165700732e-02  -3.0984073849859350e-02  -