<?xml version="1.0"?>
<VTKFile type="UnstructuredGrid"  version="0.1"  >
<UnstructuredGrid>
<Piece  NumberOfPoints="2601" NumberOfCells="5000">
<Points>
<DataArray  type="Float64"  NumberOfComponents="3"  format="ascii">0 0 0  0.03 0 0  0.06 0 0  0.09 0 0  0.12 0 0  0.15 0 0  0.18 0 0  0.21 0 0  0.24 0 0  0.27 0 0  0.3 0 0  0.33 0 0  0.36 0 0  0.39 0 0  0.42 0 0  0.45 0 0  0.48 0 0  0.51 0 0  0.54 0 0  0.57 0 0  0.6 0 0  0.63 0 0  0.66 0 0  0.6899999999999999 0 0  0.72 0 0  0.75 0 0  0.78 0 0  0.8100000000000001 0 0  0.84 0 0  0.87 0 0  0.9 0 0  0.93 0 0  0.96 0 0  0.99 0 0  1.02 0 0  1.05 0 0  1.08 0 0  1.11 0 0  1.14 0 0  1.17 0 0  1.2 0 0  1.23 0 0  1.26 0 0  1.29 0 0  1.32 0 0  1.35 0 0  1.38 0 0  1.41 0 0  1.44 0 0  1.47 0 0  1.5 0 0  0 0.02 0  0.03 0.02 0  0.06 0.02 0  0.09 0.02 0  0.12 0.02 0  0.15 0.02 0  0.18 0.02 0  0.21 0.02 0  0.24 0.02 0  0.27 0.02 0  0.3 0.02 0  0.33 0.02 0  0.36 0.02 0  0.39 0.02 0  0.42 0.02 0  0.45 0.02 0  0.48 0.02 0  0.51 0.02 0  0.54 0.02 0  0.57 0.02 0  0.6 0.02 0  0.63 0.02 0  0.66 0.02 0  0.6899999999999999 0.02 0  0.72 0.02 0  0.75 0.02 0  0.78 0.02 0  0.8100000000000001 0.02 0  0.84 0.02 0  0.87 0.02 0  0.9 0.02 0  0.93 0.02 0  0.96 0.02 0  0.99 0.02 0  1.02 0.02 0  1.05 0.02 0  1.08 0.02 0  1.11 0.02 0  1.14 0.02 0  1.17 0.02 0  1.2 0.02 0  1.23 0.02 0  1.26 0.02 0  1.29 0.02 0  1.32 0.02 0  1.35 0.02 0  1.38 0.02 0  1.41 0.02 0  1.44 0.02 0  1.47 0.02 0  1.5 0.02 0  0 0.04 0  0.03 0.04 0  0.06 0.04 0  0.09 0.04 0  0.12 0.04 0  0.15 0.04 0  0.18 0.04 0  0.21 0.04 0  0.24 0.04 0  0.27 0.04 0  0.3 0.04 0  0.33 0.04 0  0.36 0.04 0  0.39 0.04 0  0.42 0.04 0  0.45 0.04 0  0.48 0.04 0  0.51 0.04 0  0.54 0.04 0  0.57 0.04 0  0.6 0.04 0  0.63 0.04 0  0.66 0.04 0  0.6899999999999999 0.04 0  0.72 0.04 0  0.75 0.04 0  0.78 0.04 0  0.8100000000000001 0.04 0  0.84 0.04 0  0.87 0.04 0  0.9 0.04 0  0.93 0.04 0  0.96 0.04 0  0.99 0.04 0  1.02 0.04 0  1.05 0.04 0  1.08 0.04 0  1.11 0.04 0  1.14 0.04 0  1.17 0.04 0  1.2 0.04 0  1.23 0.04 0  1.26 0.04 0  1.29 0.04 0  1.32 0.04 0  1.35 0.04 0  1.38 0.04 0  1.41 0.04 0  1.44 0.04 0  1.47 0.04 0  1.5 0.04 0  0 0.06 0  0.03 0.06 0  0.06 0.06 0  0.09 0.06 0  0.12 0.06 0  0.15 0.06 0  0.18 0.06 0  0.21 0.06 0  0.24 0.06 0  0.27 0.06 0  0.3 0.06 0  0.33 0.06 0  0.36 0.06 0  0.39 0.06 0  0.42 0.06 0  0.45 0.06 0  0.48 0.06 0  0.51 0.06 0  0.54 0.06 0  0.57 0.06 0  0.6 0.06 0  0.63 0.06 0  0.66 0.06 0  0.6899999999999999 0.06 0  0.72 0.06 0  0.75 0.06 0  0.78 0.06 0  0.8100000000000001 0.06 0  0.84 0.06 0  0.87 0.06 0  0.9 0.06 0  0.93 0.06 0  0.96 0.06 0  0.99 0.06 0  1.02 0.06 0  1.05 0.06 0  1.08 0.06 0  1.11 0.06 0  1.14 0.06 0  1.17 0.06 0  1.2 0.06 0  1.23 0.06 0  1.26 0.06 0  1.29 0.06 0  1.32 0.06 0  1.35 0.06 0  1.38 0.06 0  1.41 0.06 0  1.44 0.06 0  1.47 0.06 0  1.5 0.06 0  0 0.08 0  0.03 0.08 0  0.06 0.08 0  0.09 0.08 0  0.12 0.08 0  0.15 0.08 0  0.18 0.08 0  0.21 0.08 0  0.24 0.08 0  0.27 0.08 0  0.3 0.08 0  0.33 0.08 0  0.36 0.08 0  0.39 0.08 0  0.42 0.08 0  0.45 0.08 0  0.48 0.08 0  0.51 0.08 0  0.54 0.08 0  0.57 0.08 0  0.6 0.08 0  0.63 0.08 0  0.66 0.08 0  0.6899999999999999 0.08 0  0.72 0.08 0  0.75 0.08 0  0.78 0.08 0  0.8100000000000001 0.08 0  0.84 0.08 0  0.87 0.08 0  0.9 0.08 0  0.93 0.08 0  0.96 0.08 0  0.99 0.08 0  1.02 0.08 0  1.05 0.08 0  1.08 0.08 0  1.11 0.08 0  1.14 0.08 0  1.17 0.08 0  1.2 0.08 0  1.23 0.08 0  1.26 0.08 0  1.29 0.08 0  1.32 0.08 0  1.35 0.08 0  1.38 0.08 0  1.41 0.08 0  1.44 0.08 0  1.47 0.08 0  1.5 0.08 0  0 0.1 0  0.03 0.1 0  0.06 0.1 0  0.09 0.1 0  0.12 0.1 0  0.15 0.1 0  0.18 0.1 0  0.21 0.1 0  0.24 0.1 0  0.27 0.1 0  0.3 0.1 0  0.33 0.1 0  0.36 0.1 0  0.39 0.1 0  0.42 0.1 0  0.45 0.1 0  0.48 0.1 0  0.51 0.1 0  0.54 0.1 0  0.57 0.1 0  0.6 0.1 0  0.63 0.1 0  0.66 0.1 0  0.6899999999999999 0.1 0  0.72 0.1 0  0.75 0.1 0  0.78 0.1 0  0.8100000000000001 0.1 0  0.84 0.1 0  0.87 0.1 0  0.9 0.1 0  0.93 0.1 0  0.96 0.1 0  0.99 0.1 0  1.02 0.1 0  1.05 0.1 0  1.08 0.1 0  1.11 0.1 0  1.14 0.1 0  1.17 0.1 0  1.2 0.1 0  1.23 0.1 0  1.26 0.1 0  1.29 0.1 0  1.32 0.1 0  1.35 0.1 0  1.38 0.1 0  1.41 0.1 0  1.44 0.1 0  1.47 0.1 0  1.5 0.1 0  0 0.12 0  0.03 0.12 0  0.06 0.12 0  0.09 0.12 0  0.12 0.12 0  0.15 0.12 0  0.18 0.12 0  0.21 0.12 0  0.24 0.12 0  0.27 0.12 0  0.3 0.12 0  0.33 0.12 0  0.36 0.12 0  0.39 0.12 0  0.42 0.12 0  0.45 0.12 0  0.48 0.12 0  0.51 0.12 0  0.54 0.12 0  0.57 0.12 0  0.6 0.12 0  0.63 0.12 0  0.66 0.12 0  0.6899999999999999 0.12 0  0.72 0.12 0  0.75 0.12 0  0.78 0.12 0  0.8100000000000001 0.12 0  0.84 0.12 0  0.87 0.12 0  0.9 0.12 0  0.93 0.12 0  0.96 0.12 0  0.99 0.12 0  1.02 0.12 0  1.05 0.12 0  1.08 0.12 0  1.11 0.12 0  1.14 0.12 0  1.17 0.12 0  1.2 0.12 0  1.23 0.12 0  1.26 0.12 0  1.29 0.12 0  1.32 0.12 0  1.35 0.12 0  1.38 0.12 0  1.41 0.12 0  1.44 0.12 0  1.47 0.12 0  1.5 0.12 0  0 0.14 0  0.03 0.14 0  0.06 0.14 0  0.09 0.14 0  0.12 0.14 0  0.15 0.14 0  0.18 0.14 0  0.21 0.14 0  0.24 0.14 0  0.27 0.14 0  0.3 0.14 0  0.33 0.14 0  0.36 0.14 0  0.39 0.14 0  0.42 0.14 0  0.45 0.14 0  0.48 0.14 0  0.51 0.14 0  0.54 0.14 0  0.57 0.14 0  0.6 0.14 0  0.63 0.14 0  0.66 0.14 0  0.6899999999999999 0.14 0  0.72 0.14 0  0.75 0.14 0  0.78 0.14 0  0.8100000000000001 0.14 0  0.84 0.14 0  0.87 0.14 0  0.9 0.14 0  0.93 0.14 0  0.96 0.14 0  0.99 0.14 0  1.02 0.14 0  1.05 0.14 0  1.08 0.14 0  1.11 0.14 0  1.14 0.14 0  1.17 0.14 0  1.2 0.14 0  1.23 0.14 0  1.26 0.14 0  1.29 0.14 0  1.32 0.14 0  1.35 0.14 0  1.38 0.14 0  1.41 0.14 0  1.44 0.14 0  1.47 0.14 0  1.5 0.14 0  0 0.16 0  0.03 0.16 0  0.06 0.16 0  0.09 0.16 0  0.12 0.16 0  0.15 0.16 0  0.18 0.16 0  0.21 0.16 0  0.24 0.16 0  0.27 0.16 0  0.3 0.16 0  0.33 0.16 0  0.36 0.16 0  0.39 0.16 0  0.42 0.16 0  0.45 0.16 0  0.48 0.16 0  0.51 0.16 0  0.54 0.16 0  0.57 0.16 0  0.6 0.16 0  0.63 0.16 0  0.66 0.16 0  0.6899999999999999 0.16 0  0.72 0.16 0  0.75 0.16 0  0.78 0.16 0  0.8100000000000001 0.16 0  0.84 0.16 0  0.87 0.16 0  0.9 0.16 0  0.93 0.16 0  0.96 0.16 0  0.99 0.16 0  1.02 0.16 0  1.05 0.16 0  1.08 0.16 0  1.11 0.16 0  1.14 0.16 0  1.17 0.16 0  1.2 0.16 0  1.23 0.16 0  1.26 0.16 0  1.29 0.16 0  1.32 0.16 0  1.35 0.16 0  1.38 0.16 0  1.41 0.16 0  1.44 0.16 0  1.47 0.16 0  1.5 0.16 0  0 0.18 0  0.03 0.18 0  0.06 0.18 0  0.09 0.18 0  0.12 0.18 0  0.15 0.18 0  0.18 0.18 0  0.21 0.18 0  0.24 0.18 0  0.27 0.18 0  0.3 0.18 0  0.33 0.18 0  0.36 0.18 0  0.39 0.18 0  0.42 0.18 0  0.45 0.18 0  0.48 0.18 0  0.51 0.18 0  0.54 0.18 0  0.57 0.18 0  0.6 0.18 0  0.63 0.18 0  0.66 0.18 0  0.6899999999999999 0.18 0  0.72 0.18 0  0.75 0.18 0  0.78 0.18 0  0.8100000000000001 0.18 0  0.84 0.18 0  0.87 0.18 0  0.9 0.18 0  0.93 0.18 0  0.96 0.18 0  0.99 0.18 0  1.02 0.18 0  1.05 0.18 0  1.08 0.18 0  1.11 0.18 0  1.14 0.18 0  1.17 0.18 0  1.2 0.18 0  1.23 0.18 0  1.26 0.18 0  1.29 0.18 0  1.32 0.18 0  1.35 0.18 0  1.38 0.18 0  1.41 0.18 0  1.44 0.18 0  1.47 0.18 0  1.5 0.18 0  0 0.2 0  0.03 0.2 0  0.06 0.2 0  0.09 0.2 0  0.12 0.2 0  0.15 0.2 0  0.18 0.2 0  0.21 0.2 0  0.24 0.2 0  0.27 0.2 0  0.3 0.2 0  0.33 0.2 0  0.36 0.2 0  0.39 0.2 0  0.42 0.2 0  0.45 0.2 0  0.48 0.2 0  0.51 0.2 0  0.54 0.2 0  0.57 0.2 0  0.6 0.2 0  0.63 0.2 0  0.66 0.2 0  0.6899999999999999 0.2 0  0.72 0.2 0  0.75 0.2 0  0.78 0.2 0  0.8100000000000001 0.2 0  0.84 0.2 0  0.87 0.2 0  0.9 0.2 0  0.93 0.2 0  0.96 0.2 0  0.99 0.2 0  1.02 0.2 0  1.05 0.2 0  1.08 0.2 0  1.11 0.2 0  1.14 0.2 0  1.17 0.2 0  1.2 0.2 0  1.23 0.2 0  1.26 0.2 0  1.29 0.2 0  1.32 0.2 0  1.35 0.2 0  1.38 0.2 0  1.41 0.2 0  1.44 0.2 0  1.47 0.2 0  1.5 0.2 0  0 0.22 0  0.03 0.22 0  0.06 0.22 0  0.09 0.22 0  0.12 0.22 0  0.15 0.22 0  0.18 0.22 0  0.21 0.22 0  0.24 0.22 0  0.27 0.22 0  0.3 0.22 0  0.33 0.22 0  0.36 0.22 0  0.39 0.22 0  0.42 0.22 0  0.45 0.22 0  0.48 0.22 0  0.51 0.22 0  0.54 0.22 0  0.57 0.22 0  0.6 0.22 0  0.63 0.22 0  0.66 0.22 0  0.6899999999999999 0.22 0  0.72 0.22 0  0.75 0.22 0  0.78 0.22 0  0.8100000000000001 0.22 0  0.84 0.22 0  0.87 0.22 0  0.9 0.22 0  0.93 0.22 0  0.96 0.22 0  0.99 0.22 0  1.02 0.22 0  1.05 0.22 0  1.08 0.22 0  1.11 0.22 0  1.14 0.22 0  1.17 0.22 0  1.2 0.22 0  1.23 0.22 0  1.26 0.22 0  1.29 0.22 0  1.32 0.22 0  1.35 0.22 0  1.38 0.22 0  1.41 0.22 0  1.44 0.22 0  1.47 0.22 0  1.5 0.22 0  0 0.24 0  0.03 0.24 0  0.06 0.24 0  0.09 0.24 0  0.12 0.24 0  0.15 0.24 0  0.18 0.24 0  0.21 0.24 0  0.24 0.24 0  0.27 0.24 0  0.3 0.24 0  0.33 0.24 0  0.36 0.24 0  0.39 0.24 0  0.42 0.24 0  0.45 0.24 0  0.48 0.24 0  0.51 0.24 0  0.54 0.24 0  0.57 0.24 0  0.6 0.24 0  0.63 0.24 0  0.66 0.24 0  0.6899999999999999 0.24 0  0.72 0.24 0  0.75 0.24 0  0.78 0.24 0  0.8100000000000001 0.24 0  0.84 0.24 0  0.87 0.24 0  0.9 0.24 0  0.93 0.24 0  0.96 0.24 0  0.99 0.24 0  1.02 0.24 0  1.05 0.24 0  1.08 0.24 0  1.11 0.24 0  1.14 0.24 0  1.17 0.24 0  1.2 0.24 0  1.23 0.24 0  1.26 0.24 0  1.29 0.24 0  1.32 0.24 0  1.35 0.24 0  1.38 0.24 0  1.41 0.24 0  1.44 0.24 0  1.47 0.24 0  1.5 0.24 0  0 0.26 0  0.03 0.26 0  0.06 0.26 0  0.09 0.26 0  0.12 0.26 0  0.15 0.26 0  0.18 0.26 0  0.21 0.26 0  0.24 0.26 0  0.27 0.26 0  0.3 0.26 0  0.33 0.26 0  0.36 0.26 0  0.39 0.26 0  0.42 0.26 0  0.45 0.26 0  0.48 0.26 0  0.51 0.26 0  0.54 0.26 0  0.57 0.26 0  0.6 0.26 0  0.63 0.26 0  0.66 0.26 0  0.6899999999999999 0.26 0  0.72 0.26 0  0.75 0.26 0  0.78 0.26 0  0.8100000000000001 0.26 0  0.84 0.26 0  0.87 0.26 0  0.9 0.26 0  0.93 0.26 0  0.96 0.26 0  0.99 0.26 0  1.02 0.26 0  1.05 0.26 0  1.08 0.26 0  1.11 0.26 0  1.14 0.26 0  1.17 0.26 0  1.2 0.26 0  1.23 0.26 0  1.26 0.26 0  1.29 0.26 0  1.32 0.26 0  1.35 0.26 0  1.38 0.26 0  1.41 0.26 0  1.44 0.26 0  1.47 0.26 0  1.5 0.26 0  0 0.28 0  0.03 0.28 0  0.06 0.28 0  0.09 0.28 0  0.12 0.28 0  0.15 0.28 0  0.18 0.28 0  0.21 0.28 0  0.24 0.28 0  0.27 0.28 0  0.3 0.28 0  0.33 0.28 0  0.36 0.28 0  0.39 0.28 0  0.42 0.28 0  0.45 0.28 0  0.48 0.28 0  0.51 0.28 0  0.54 0.28 0  0.57 0.28 0  0.6 0.28 0  0.63 0.28 0  0.66 0.28 0  0.6899999999999999 0.28 0  0.72 0.28 0  0.75 0.28 0  0.78 0.28 0  0.8100000000000001 0.28 0  0.84 0.28 0  0.87 0.28 0  0.9 0.28 0  0.93 0.28 0  0.96 0.28 0  0.99 0.28 0  1.02 0.28
[...]
<PointData  Scalars="sensitivity"> 
<DataArray  type="Float64"  Name="sensitivity"  format="ascii">-1.1094836265919761e-06  -1.6723583288946517e-05  -6.8822476731746527e-05  -1.7360039234236218e-04  -3.2987810783958739e-04  -5.1601377373154829e-04  -7.0414747427079995e-04  -8.7298803663261979e-04  -1.0111768105714515e-03  -1.1152791239702230e-03  -1.1866345630467397e-03  -1.2289964193661510e-03  -1.2472404989644385e-03  -1.2466273850441122e-03  -1.2322407918393097e-03  -1.2085947419486938e-03  -1.1794696640003461e-03  -1.1479234934857773e-03  -1.1163708430416094e-03  -1.0866644143993070e-03  -1.0601701836795883e-03  -1.0378492793313709e-03  -1.0203482945891236e-03  -1.0080845506806432e-03  -1.0013114251586153e-03  -1.0001584572069634e-03  -1.0046502458062100e-03  -1.0147101994639808e-03  -1.0301502541913332e-03  -1.0506407743702663e-03  -1.0756529576811666e-03  -1.1043736697474425e-03  -1.1356052926836115e-03  -1.1676687493058682e-03  -1.1983213253928013e-03  -1.2246906128707395e-03  -1.2432302645808511e-03  -1.2497316262397699e-03  -1.2394441275567665e-03  -1.2073089142352949e-03  -1.1482624099336159e-03  -1.0577492221856739e-03  -9.3284551469323569e-04  -7.7440753521064399e-04  -5.9061941838383714e-04  -4.0001467606257216e-04  -2.2958861503174978e-04  -1.0442147737228216e-04  -3.3558198123470151e-05  -4.7264751063802853e-06  -3.3226212192741815e-08  -8.6220261814785395e-06  -7.5860345708984276e-05  -3.0048096972738742e-04  -7.8256679587910714e-04  -1.5348791000595451e-03  -2.4621012758196908e-03  -3.4243826669446377e-03  -4.3060735145629874e-03  -5.0402998793082614e-03  -5.6028214373058868e-03  -5.9964907475778305e-03  -6.2382710970889576e-03  -6.3519464285209494e-03  -6.3641116808465185e-03  -6.3010888449521341e-03  -6.1866078768201462e-03  -6.0407124880921198e-03  -5.8797048080245261e-03  -5.7165348417638588e-03  -5.5612177177290015e-03  -5.4212014804364619e-03  -5.3017655924415636e-03  -5.2064817519581700e-03  -5.1376713399066982e-03  -5.0967698758805340e-03  -5.0845576566957672e-03  -5.1012732364697499e-03  -5.1466464297682995e-03  -5.2198656148719292e-03  -5.3194538703317078e-03  -5.4430074470608039e-03  -5.5867809828756233e-03  -5.7451750258612445e-03  -5.9102271692910886e-03  -6.0711800801164497e-03  -6.2141304243825005e-03  -6.3217685679320410e-03  -6.3733556980365459e-03  -6.3452485265281765e-03  -6.2120340948689816e-03  -5.9480260822582726e-03  -5.5293346060061276e-03  -4.9387799274665679e-03  -4.1746499578777059e-03  -3.2668170709566026e-03  -2.2952053302431998e-03  -1.3887113054522051e-03  -6.8357132525206292e-04  -2.5313001202733817e-04  -6.0615088041478033e-05  -3.1639517456053616e-06  -2.4743753182021834e-05  -1.4766360745284738e-04  -4.4491284203771305e-04  -1.0686469581459789e-03  -2.0143977221221544e-03  -3.1468992590856742e-03  -4.2997846941952500e-03  -5.3443273619838451e-03  -6.2077464600122072e-03  -6.8652875609166728e-03  -7.3219452932535081e-03  -7.5975767400880048e-03  -7.7200024080423301e-03  -7.7211784291837003e-03  -7.6331130705353583e-03  -7.4845111795654277e-03  -7.2993805764386584e-03  -7.0971760799130269e-03  -6.8934143293025441e-03  -6.7001533652895542e-03  -6.5263398013066078e-03  -6.3782402949433539e-03  -6.2600254029190347e-03  -6.1743775334635051e-03  -6.1229624916721535e-03  -6.1067040860898741e-03  -6.1259029303842687e-03  -6.1802700692796652e-03  -6.2689058817765328e-03  -6.3901827242699117e-03  -6.5414432793399853e-03  -6.7184708978351784e-03  -6.9148186221797605e-03  -7.1211718498524175e-03  -7.3248458645556128e-03  -7.5093867585203462e-03  -7.6542430810335130e-03  -7.7346389769662035e-03  -7.7222192068020128e-03  -7.5866811845273730e-03  -7.2979626277196131e-03  -6.8276340929530515e-03  -6.1542933462937705e-03  -5.2706503340295167e-03  -4.2006355718603883e-03  -3.0271326652900337e-03  -1.8968028816092814e-03  -9.8140847102517158e-04  -3.9878642452587608e-04  -1.3150393426113218e-04  -1.5102005464098902e-05  -4.0265321037163326e-05  -2.4841484765558854e-04  -6.6086240247174920e-04  -1.4326363350042521e-03  -2.4891804580676855e-03  -3.6571647022422414e-03  -4.7925480908696475e-03  -5.7946503528370783e-03  -6.6064201565379588e-03  -7.2137567923457272e-03  -7.6257138324318302e-03  -7.8607947192595468e-03  -7.9453703754736107e-03  -7.9119088065922223e-03  -7.7934508573840391e-03  -7.6189125728326453e-03  -7.4117799324319965e-03  -7.1909102653409515e-03  -6.9715061933394735e-03  -6.7655073531074162e-03  -6.5816929817895742e-03  -6.4260105374495408e-03  -6.3022475181492947e-03  -6.2127771251185814e-03  -6.1590916204758246e-03  -6.1420501208048909e-03  -6.1619411231428273e-03  -6.2184919158795263e-03  -6.3108820329299056e-03  -6.4376941782073489e-03  -6.5966380990038322e-03  -6.7839390314245072e-03  -6.9935282574914099e-03  -7.2163485287737817e-03  -7.4399099644062421e-03  -7.6479901299528388e-03  -7.8202352170324736e-03  -7.9317247601292662e-03  -7.9537022431018945e-03  -7.8561557241838258e-03  -7.6110976302486691e-03  -7.1909374874012406e-03  -6.5737459956354037e-03  -5.7484902972312615e-03  -4.7191876795147645e-03  -3.5412444750221365e-03  -2.3408759014214796e-03  -1.3012184074457584e-03  -5.7481712120271066e-04  -2.1493455550143469e-04  -3.2236032188463566e-05  -3.7877768349962766e-05  -3.7655732568198325e-04  -1.0973764760896397e-03  -2.1902937980550633e-03  -3.3892492163247446e-03  -4.5065975388816140e-03  -5.5289918097480182e-03  -6.4105330969716047e-03  -7.1085603687732792e-03  -7.6209479987329075e-03  -7.9562224773475753e-03  -8.1249054058498259e-03  -8.1491854652396816e-03  -8.0626461664928852e-03  -7.8999853977247125e-03  -7.6897151330037414e-03  -7.4536258677996839e-03  -7.2090497387377328e-03  -6.9704287386369570e-03  -6.7494031924888532e-03  -6.5543696251757419e-03  -6.3906156204894919e-03  -6.2611918274538521e-03  -6.1679220248081965e-03  -6.1120235148814104e-03  -6.0942730048103039e-03  -6.1149468187431640e-03  -6.1737778769583194e-03  -6.2700339057510414e-03  -6.4026145679367394e-03  -6.5698587321068244e-03  -6.7687958966297654e-03  -6.9940627011081417e-03  -7.2371151928655340e-03  -7.4859872199314467e-03  -7.7251866399375433e-03  -7.9350701058933520e-03  -8.0911606446239601e-03  -8.1646128974065674e-03  -8.1259052600342763e-03  -7.9504326340196843e-03  -7.6157362487739638e-03  -7.1033611659489099e-03  -6.4204606212476542e-03  -5.5320831358423288e-03  -4.4303037548554447e-03  -3.1891233097272164e-03  -1.9712442725929439e-03  -9.3538012397543992e-04  -2.8931704548317938e-04  -4.0426722253816835e-05  -3.9593295853921425e-05  -6.9862838599744079e-04  -2.6689354093797188e-03  -5.0389175214324653e-03  -6.3601429846958943e-03  -6.7973709275348220e-03  -7.0606689171104292e-03  -7.4266284225348355e-03  -7.8217875987389527e-03  -8.1614167294110172e-03  -8.3865855654288880e-03  -8.4653098941488945e-03  -8.4066584225009379e-03  -8.2474865763535812e-03  -8.0259251249073758e-03  -7.7691965487542433e-03  -7.4957798694537687e-03  -7.2205112891801908e-03  -6.9569451014884669e-03  -6.7166309904625318e-03  -6.5075476862708724e-03  -6.3339404856450768e-03  -6.1976793776369419e-03  -6.0997832212808280e-03  -6.0411483165827449e-03  -6.0225171598190675e-03  -6.0441820476588807e-03  -6.1058423331571288e-03  -6.2067918456180319e-03  -6.3463016065231029e-03  -6.5236451086844970e-03  -6.7371206004349510e-03  -6.9823939747099637e-03  -7.2515176684915068e-03  -7.5331820341225731e-03  -7.8128667751623578e-03  -8.0724120381926948e-03  -8.2889415684992539e-03  -8.4315677812633744e-03  -8.4700767432570080e-03  -8.3912284550897043e-03  -8.2071622203227397e-03  -7.9137272712620742e-03  -7.6556926284523956e-03  -7.4490846371535078e-03  -7.1240771678074905e-03  -6.2481275905913987e-03  -4.1610536846238182e-03  -1.8223282059678843e-03  -3.9002775624502508e-04  -2.8733880750256585e-05  -3.8555287215314403e-04  -2.9260668723021747e-03  -1.1170779267449563e-02  -1.9351762477379148e-02  -2.1400999626967520e-02  -1.8344480985261546e-02  -1.4048253620833465e-02  -1.0797373249479419e-02  -9.2973676321061981e-03  -8.9660465217043916e-03  -8.9536041807857045e-03  -8.8979921119751049e-03  -8.7253681898077796e-03  -8.4703888850436258e-03  -8.1750111068387005e-03  -7.8619532962478089e-03  -7.5433698190663116e-03  -7.2302838528847972e-03  -6.9356112400433276e-03  -6.6715610871284662e-03  -6.4457924219862251e-03  -6.2608723533962296e-03  -6.1167920545382969e-03  -6.0134605994275623e-03  -5.9515003743457360e-03  -5.9317737834432872e-03  -5.9546613034429903e-03  -6.0197442471132965e-03  -6.1261544767852666e-03  -6.2734844957533682e-03  -6.4623534434966410e-03  -6.6930854477274017e-03  -6.9628238027458888e-03  -7.2640301340965900e-03  -7.5859882218394549e-03  -7.9156454839975701e-03  -8.2381256400705059e-03  -8.5319661397589650e-03  -8.7637889443559422e-03  -8.9149181974602105e-03  -9.0061006897874489e-03  -9.1987557671905189e-03  -9.7727263140994468e-03  -1.1647426782667798e-02  -1.4693980395926346e-02  -1.8025197086853920e-02  -2.0286361371244826e-02  -1.9544467148444006e-02  -1.2010954056748810e-02  -2.2081593538341177e-03  -6.5372151786836243e-05  -1.5428272467014612e-03  -1.6988979436138276e-02  -3.0906318285182973e-02  -3.3471530939057678e-02  -3.3787301150122150e-02  -3.2170029623421144e-02  -2.8784814378455988e-02  -2.3697409177797751e-02  -1.5776166704582022e-02  -1.1297754497198728e-02  -9.9298536024427092e-03  -9.4844360408751997e-03  -9.1143537489229952e-03  -8.7275737969404240e-03  -8.3430362997729442e-03  -7.9655801639569798e-03  -7.5951403855846556e-03  -7.2370117387121112e-03  -6.9044588132403011e-03  -6.6121880594340494e-03  -6.3677905713625197e-03  -6.1709143025286024e-03  -6.0184997139451158e-03  -5.9090210264665837e-03  -5.8430804533948048e-03  -5.8219993962663084e-03  -5.8463929068553076e-03  -5.9155720791981671e-03  -6.0280947258670352e-03  -6.1835741983383300e-03  -6.3845136000066985e-03  -6.6346332116398801e-03  -6.9333275021637364e-03  -7.2727033405811893e-03  -7.6424089489913472e-03  -8.0318388473790258e-03  -8.4302909285316977e-03  -8.8228101923652508e-03  -9.1986681052061425e-03  -9.5678181210051977e-03  -1.0189175892339612e-02  -1.2076067885896085e-02  -1.6012608882815832e-02  -2.2883990897453084e-02  -2.9667208189370912e-02  -3.0568538493261306e-02  -3.0255458667052475e-02  -3.2170068182584305e-02  -3.8350478984804016e-02  -1.8424600278972008e-02  -1.0011362939428509e-03  -8.6657816925409439e-03  -3.0946084004650824e-02  -3.0970411155907721e-02  -3.1293854607425398e-02  -3.1443747300809149e-02  -3.1020200969684397e-02  -3.0727840438009940e-02  -3.0537236483608038e-02  -2.7996315814864385e-02  -2.0541423550716045e-02  -1.3514447989922962e-02  -1.0703674060134677e-02  -9.6586536100899175e-03  -9.0269036614358065e-03  -8.5275529429373904e-03  -8.0780708349624652e-03  -7.6502585323543568e-03  -7.2391061002977019e-03  -6.8602775545625336e-03  -6.5350918579814114e-03  -6.2713973120875292e-03  -6.0632697358446175e-03  -5.9026005932798263e-03  -5.7862401588380579e-03  -5.7154569651665229e-03  -5.6926645700105692e-03  -5.7189600976630195e-03  -5.7931560734703737e-03  -5.9124827520467150e-03  -6.0756734764911184e-03  -6.2876970251480244e-03  -6.5584338732979754e-03  -6.8911864386174372e-03  -7.2755980397249094e-03  -7.7003147707470415e-03  -8.1604780867407800e-03  -8.6533109081325370e-03  -9.2084275138050332e-03  -9.8998135424767271e-03  -1.1084204043856957e-02  -1.3899829314444247e-02  -2.0186689725907998e-02  -2.8024539508926073e-02  -3.0105575388752689e-02  -3.0318956916105318e-02  -3.0436023983809884e-02  -3.0541119612984991e-02  -3.0997702347448138e-02  -3.2428659778867254e-02  -3.4012054806957820e-02  -6.6819777990791401e-03  -1.5514852920482731e-02  -3.1480053155978648e-02  -3.1419333022586822e-02  -3.1394073084048194e-02  -3.1421393084085453e-02  -3.1196180661918354e-02  -3.0938971057629015e-02  -3.0871904344329140e-02  -3.0745415629341556e-02  -2.8728998297196735e-02  -2.4840195485563422e-02  -1.5894537425590476e-02  -1.1142197475545654e-02  -9.5279563138568491e-03  -8.7631243528323282e-03  -8.2077484265251494e-03  -7.7129460985176984e-03  -7.2370791127532247e-03  -6.7991086405778502e-03  -6.4356161416472589e-03  -6.1543667340912744e-03  -5.9378537916842736e-03  -5.7695913844859909e-03  -5.6452502685416994e-03  -5.5682877193544292e-03  -5.5432318387535831e-03  -5.5720198375446483e-03  -5.6527541836115542e-03  -5.7800941054902055e-03  -5.9496740104627186e-03  -6.1691920305112884e-03  -6.4603759051439103e-03  -6.8342651250797347e-03  -7.2739757800979465e-03  -7.7632639643323530e-03  -8.3246517440592714e-03  -8.9769816099016710e-03  -9.9525629915275544e-03  -1.1919193641067777e-02  -1.5879484998324461e-02  -2.3253569384720126e-02  -2.9003841123631705e-02  -3.0710710835781009e-02  -3.0694240936755216e-02  -3.1038132863703636e-02  -3.1148531385770402e-02  -3.1181642763209644e-02  -3.1343836620096849e-02  -3.1526782839764837e-02  -3.1622804807412537e-02  -1.5881054113237418e-02  -1.8871145776681322e-02  -3.2848468020876612e-02  -3.1569458274840694e-02  -3.1629417121107374e-02  -3.1468973443171268e-02  -3.1397352161006371e-02  -3.1312587745102954e-02  -3.1219440323197272e-02  -3.1167256207404608e-02  -3.0987602165586273e-02  -3.0126928371183661e-02  -2.9035481193690576e-02  -1.8324133640316879e-02  -1.1794733714582653e-02  -9.4461084655644307e-03  -8.4609191022476139e-03  -7.8244013739661479e-03  -7.2473837494685008e-03  -6.7214119383540889e-03  -6.3108048710777123e-03  -6.0176867163873674e-03  -5.7984923333328680e-03  -5.6231440751497363e-03  -5.4884844881966212e-03  -5.4030616312293958e-03  -5.3748774721127926e-03  -5.4071294357445942e-03  -5.4971847787661059e-03  -5.6353820748597161e-03  -5.8100961805271399e-03  -6.0296977460484137e-03  -6.3396373589592768e-03  -6.7711581423352549e-03  -7.2975251302321367e-03  -7.8870080189463228e-03  -8.6946351785145756e-03  -9.9544102122620052e-03  -1.2797785268708709e-02  -1.8175731540909897e-02  -2.6392617594453525e-02  -2.9848828490845660e-02  -3.1093213077287202e-02  -3.1193896232143841e-02  -3.1171431206193853e-02  -3.1221783708042562e-02  -3.1322247350256092e-02  -3.1459199869190817e-02  -3.1585641799442725e-02  -3.1675588328910653e-02  -3.3232049369567834e-02  -1.7486752121268212e-02  -2.8799646692300524e-02  -4.6847798079243427e-02  -3.6418238933442607e-02  -3.2014190649505628e-02  -3.1555576861090097e-02  -3.1438826288619132e-02  -3.1365925366759362e-02  -3.1330903862486700e-02  -3.1336877765691412e-02  -3.1358762851966114e-02  -3.1049308658518373e-02  -3.0749306438208158e-02  -2.9207511201831102e-02  -2.1488731517801399e-02  -1.3766169000617107e-02  -9.9190053639481683e-03  -8.3787209264426198e-03  -7.4431628291979123e-03  -6.7047402584559700e-03  -6.2061419397204751e-03  -5.9019271630012787e-03  -5.6822812196787335e-03  -5.4945542649357240e-03  -5.3426070476724052e-03  -5.2440748346086483e-03  -5.2113783549868412e-03  -5.2490414003019698e-03  -5.3544454317698250e-03  -5.5134735682162671e-03  -5.7011688840149510e-03  -5.9152749374820719e-03  -6.2550372991188891e-03  -6.8124451751512497e-03  -7.5784643503042093e-03  -8.5929252156284695e-03  -1.0608353576894942e-02  -1.4223436466486239e-02  -2.0906189990862578e-02  -2.9206654349209129e-02  -3.0558700436798009e-02  -3.0836327156031369e-02  -3.1158878830220088e-02  -3.1281264186374141e-02  -3.1283393989131152e-02  -3.1328410952296867e-02  -3.1432642560409563e-02  -3.1514201512174614e-02  -3.2242419906234832e-02  -3.8239539177513680e-02  -4.8489129431050181e-02  -2.5647485772842111e-02  -3.5265026132587675e-02  -6.0823580521883990e-02  -4.6407214931792458e-02  -3.6050234209346249e-02  -3.1995185811154549e-02  -3.1546623369911639e-02  -3.1401756753181659e-02  -3.1330059557365918e-02  -3.1323026358388142e-02  -3.1366363535654793e-02  -3.1319453204206649e-02  -3.0932978734345078e-02  -3.0578398603585202e-02  -2.8872970300771884e-02  -2.5719198538401340e-02  -1.8624891636535804e-02  -1.3027126562571755e-02  -9.6772611578192450e-03  -7.8166746408947860e-03  -6.8277393713298655e-03  -6.3306685814713349e-03  -6.0070094536243202e-03  -5.7371340863299732e-03  -5.5267222519651462e-03  -5.3964953512277876e-03  -5.3562095056883773e-03  -5.4085858028693990e-03  -5.5561420469508087e-03  -5.7922879675429695e-03  -6.0837527006925842e-03  -6.4144731995243991e-03  -7.0225292195467224e-03  -8.2191413794549233e-03  -1.0188094602057810e-02  -1.2954441727351804e-02  -1.8164778448024749e-02  -2.5327034369435165e-02  -2.9359089161516139e-02  -3.0493679391941524e-02  -3.0856076660845791e-02  -3.1008746195657463e-02  -3.1179593243427436e-02  -3.1264008069653064e-02  -3.1320318483014191e-02  -3.1391418793785458e-02  -3.1508255737810187e-02  -3.2186555202321700e-02  -3.6898729112430660e-02  -4.6863976213293509e-02  -6.0823106371073028e-02  -3.3879442854853142e-02  -3.4204021323027238e-02  -6.3105199297067052e-02  -5.0618144233942015e-02  -4.0280509781080831e-02  -3.3816128501747124e-02  -3.1818065145763005e-02  -3.1497280429423666e-02  -3.1371115111510021e-02  -3.1312630123926113e-02  -3.1315067933821765e-02  -3.1329876921575475e-02  -3.1195725374146357e-02  -3.0850671409266717e-02  -3.0697289875905504e-02  -3.0347795087469324e-02  -2.8793990519035674e-02  -2.7942103633706632e-02  -2.1976890815134490e-02  -1.6737589261861099e-02  -1.3831081937759632e-02  -1.2176408614814888e-02  -1.0986549564574179e-02  -1.0138135604768048e-02  -9.5854835536187972e-03  -9.2796631989749846e-03  -9.1923112490313093e-03  -9.3034351827014916e-03  -9.6337576343152129e-03  -1.0229491597534245e-02  -1.1046847288617647e-02  -1.1970687550567911e-02  -1.3634193520587553e-02  -1.6794210435145840e-02  -2.1552568334905334e-02  -2.6089317229275183e-02  -2.8466614335233047e-02  -3.1273386215123669e-02  -3.1078872451418396e-02  -3.0772852927168061e-02  -3.0973471677779182e-02  -3.1136785141057659e-02  -3.1210834224709817e-02  -3.1282748541079791e-02  -3.1353890238331579e-02  -3.1472836081765529e-02  -3.1881927127604813e-02  -3.4098598785515591e-02  -4.0175854631616513e-02  -5.0002849634603996e-02  -6.2361091863711950e-02  -3.5361746507513961e-02  -2.6153451290384502e-02  -5.2757234818446186e-02  -4.6067772554246066e-02  -3.9811487044495129e-02  -3.5027761595675978e-02  -3.2388599956302833e-02  -3.1671865930889324e-02  -3.1445614126197098e-02  -3.1345887191746774e-02  -3.1299426333131812e-02  -3.1298857382604878e-02  -3.1283328500447266e-02  -3.1132436300987623e-02  -3.0877455973882553e-02  -3.0802952628208050e-02  -3.0889886868049405e-02  -3.0944308741883399e-02  -3.0498529063822829e-02  -2.8599559169772592e-02  -2.7613870060684213e-02  -2.8217038576537738e-02  -2.8010120482954998e-02  -2.7108113794982305e-02  -2.6334748215690519e-02  -2.5806475150155155e-02  -2.5562821750553369e-02  -2.5659273505223814e-02  -2.6130084842803186e-02  -2.6955795623750903e-02  -2.7799552000261050e-02  -2.7848966049002853e-02  -2.7247677328464011e-02  -2.8383767378963455e-02  -3.0241247422947693e-02  -3.1465382065343661e-02  -3.1035954163390708e-02  -3.0830421231109302e-02  -3.1103189058670155e-02  -3.1102447670679195e-02  -3.1146888548005680e-02  -3.1195751684441601e-02  -3.1246321105824534e-02  -3.1310576269576507e-02  -3.1427179210809314e-02  -3.1688997253907260e-02  -3.2445810126673656e-02  -3.4836676629141000e-02  -3.9106340042217594e-02  -4.4941400715854882e-02  -5.1506118441266034e-02  -2.9282076450174763e-02  -1.7435211199094858e-02  -3.6782971455541234e-02  -3.6324406455177372e-02  -3.5238019851754510e-02  -3.3860682399346531e-02  -3.2624199147277468e-02  -3.1910574385106624e-02  -3.1576603789097581e-02  -3.1408734080246921e-02  -3.1325222349115653e-02  -3.1292317129688933e-02  -3.1295370309253022e-02  -3.1290312406833234e-02  -3.1218658291009418e-02  -3.1136210491232573e-02  -3.1191288367125963e-02  -3.1316311936838433e-02  -3.1181790669361355e-02  -3.0900036810911628e-02  -3.0858131227735276e-02  -3.1257216723068734e-02  -3.1620918089951829e-02  -3.1339118693518235e-02  -3.0816184357121169e-02  -3.0579567494574782e-02  -3.0607224230917423e-02  -3.0726211871518860e-02  -3.0978340925210648e-02  -3.1386142759725989e-02  -3.1669214187681913e-02  -3.1517127147821497e-02  -