<?xml version="1.0"?>
<VTKFile type="UnstructuredGrid"  version="0.1"  >
<UnstructuredGrid>
<Piece  NumberOfPoints="2601" NumberOfCells="5000">
<Points>
<DataArray  type="Float64"  NumberOfComponents="3"  format="ascii">0 0 0  0.03 0 0  0.06 0 0  0.09 0 0  0.12 0 0  0.15 0 0  0.18 0 0  0.21 0 0  0.24 0 0  0.27 0 0  0.3 0 0  0.33 0 0  0.36 0 0  0.39 0 0  0.42 0 0  0.45 0 0  0.48 0 0  0.51 0 0  0.54 0 0  0.57 0 0  0.6 0 0  0.63 0 0  0.66 0 0  0.6899999999999999 0 0  0.72 0 0  0.75 0 0  0.78 0 0  0.8100000000000001 0 0  0.84 0 0  0.87 0 0  0.9 0 0  0.93 0 0  0.96 0 0  0.99 0 0  1.02 0 0  1.05 0 0  1.08 0 0  1.11 0 0  1.14 0 0  1.17 0 0  1.2 0 0  1.23 0 0  1.26 0 0  1.29 0 0  1.32 0 0  1.35 0 0  1.38 0 0  1.41 0 0  1.44 0 0  1.47 0 0  1.5 0 0  0 0.02 0  0.03 0.02 0  0.06 0.02 0  0.09 0.02 0  0.12 0.02 0  0.15 0.02 0  0.18 0.02 0  0.21 0.02 0  0.24 0.02 0  0.27 0.02 0  0.3 0.02 0  0.33 0.02 0  0.36 0.02 0  0.39 0.02 0  0.42 0.02 0  0.45 0.02 0  0.48 0.02 0  0.51 0.02 0  0.54 0.02 0  0.57 0.02 0  0.6 0.02 0  0.63 0.02 0  0.66 0.02 0  0.6899999999999999 0.02 0  0.72 0.02 0  0.75 0.02 0  0.78 0.02 0  0.8100000000000001 0.02 0  0.84 0.02 0  0.87 0.02 0  0.9 0.02 0  0.93 0.02 0  0.96 0.02 0  0.99 0.02 0  1.02 0.02 0  1.05 0.02 0  1.08 0.02 0  1.11 0.02 0  1.14 0.02 0  1.17 0.02 0  1.2 0.02 0  1.23 0.02 0  1.26 0.02 0  1.29 0.02 0  1.32 0.02 0  1.35 0.02 0  1.38 0.02 0  1.41 0.02 0  1.44 0.02 0  1.47 0.02 0  1.5 0.02 0  0 0.04 0  0.03 0.04 0  0.06 0.04 0  0.09 0.04 0  0.12 0.04 0  0.15 0.04 0  0.18 0.04 0  0.21 0.04 0  0.24 0.04 0  0.27 0.04 0  0.3 0.04 0  0.33 0.04 0  0.36 0.04 0  0.39 0.04 0  0.42 0.04 0  0.45 0.04 0  0.48 0.04 0  0.51 0.04 0  0.54 0.04 0  0.57 0.04 0  0.6 0.04 0  0.63 0.04 0  0.66 0.04 0  0.6899999999999999 0.04 0  0.72 0.04 0  0.75 0.04 0  0.78 0.04 0  0.8100000000000001 0.04 0  0.84 0.04 0  0.87 0.04 0  0.9 0.04 0  0.93 0.04 0  0.96 0.04 0  0.99 0.04 0  1.02 0.04 0  1.05 0.04 0  1.08 0.04 0  1.11 0.04 0  1.14 0.04 0  1.17 0.04 0  1.2 0.04 0  1.23 0.04 0  1.26 0.04 0  1.29 0.04 0  1.32 0.04 0  1.35 0.04 0  1.38 0.04 0  1.41 0.04 0  1.44 0.04 0  1.47 0.04 0  1.5 0.04 0  0 0.06 0  0.03 0.06 0  0.06 0.06 0  0.09 0.06 0  0.12 0.06 0  0.15 0.06 0  0.18 0.06 0  0.21 0.06 0  0.24 0.06 0  0.27 0.06 0  0.3 0.06 0  0.33 0.06 0  0.36 0.06 0  0.39 0.06 0  0.42 0.06 0  0.45 0.06 0  0.48 0.06 0  0.51 0.06 0  0.54 0.06 0  0.57 0.06 0  0.6 0.06 0  0.63 0.06 0  0.66 0.06 0  0.6899999999999999 0.06 0  0.72 0.06 0  0.75 0.06 0  0.78 0.06 0  0.8100000000000001 0.06 0  0.84 0.06 0  0.87 0.06 0  0.9 0.06 0  0.93 0.06 0  0.96 0.06 0  0.99 0.06 0  1.02 0.06 0  1.05 0.06 0  1.08 0.06 0  1.11 0.06 0  1.14 0.06 0  1.17 0.06 0  1.2 0.06 0  1.23 0.06 0  1.26 0.06 0  1.29 0.06 0  1.32 0.06 0  1.35 0.06 0  1.38 0.06 0  1.41 0.06 0  1.44 0.06 0  1.47 0.06 0  1.5 0.06 0  0 0.08 0  0.03 0.08 0  0.06 0.08 0  0.09 0.08 0  0.12 0.08 0  0.15 0.08 0  0.18 0.08 0  0.21 0.08 0  0.24 0.08 0  0.27 0.08 0  0.3 0.08 0  0.33 0.08 0  0.36 0.08 0  0.39 0.08 0  0.42 0.08 0  0.45 0.08 0  0.48 0.08 0  0.51 0.08 0  0.54 0.08 0  0.57 0.08 0  0.6 0.08 0  0.63 0.08 0  0.66 0.08 0  0.6899999999999999 0.08 0  0.72 0.08 0  0.75 0.08 0  0.78 0.08 0  0.8100000000000001 0.08 0  0.84 0.08 0  0.87 0.08 0  0.9 0.08 0  0.93 0.08 0  0.96 0.08 0  0.99 0.08 0  1.02 0.08 0  1.05 0.08 0  1.08 0.08 0  1.11 0.08 0  1.14 0.08 0  1.17 0.08 0  1.2 0.08 0  1.23 0.08 0  1.26 0.08 0  1.29 0.08 0  1.32 0.08 0  1.35 0.08 0  1.38 0.08 0  1.41 0.08 0  1.44 0.08 0  1.47 0.08 0  1.5 0.08 0  0 0.1 0  0.03 0.1 0  0.06 0.1 0  0.09 0.1 0  0.12 0.1 0  0.15 0.1 0  0.18 0.1 0  0.21 0.1 0  0.24 0.1 0  0.27 0.1 0  0.3 0.1 0  0.33 0.1 0  0.36 0.1 0  0.39 0.1 0  0.42 0.1 0  0.45 0.1 0  0.48 0.1 0  0.51 0.1 0  0.54 0.1 0  0.57 0.1 0  0.6 0.1 0  0.63 0.1 0  0.66 0.1 0  0.6899999999999999 0.1 0  0.72 0.1 0  0.75 0.1 0  0.78 0.1 0  0.8100000000000001 0.1 0  0.84 0.1 0  0.87 0.1 0  0.9 0.1 0  0.93 0.1 0  0.96 0.1 0  0.99 0.1 0  1.02 0.1 0  1.05 0.1 0  1.08 0.1 0  1.11 0.1 0  1.14 0.1 0  1.17 0.1 0  1.2 0.1 0  1.23 0.1 0  1.26 0.1 0  1.29 0.1 0  1.32 0.1 0  1.35 0.1 0  1.38 0.1 0  1.41 0.1 0  1.44 0.1 0  1.47 0.1 0  1.5 0.1 0  0 0.12 0  0.03 0.12 0  0.06 0.12 0  0.09 0.12 0  0.12 0.12 0  0.15 0.12 0  0.18 0.12 0  0.21 0.12 0  0.24 0.12 0  0.27 0.12 0  0.3 0.12 0  0.33 0.12 0  0.36 0.12 0  0.39 0.12 0  0.42 0.12 0  0.45 0.12 0  0.48 0.12 0  0.51 0.12 0  0.54 0.12 0  0.57 0.12 0  0.6 0.12 0  0.63 0.12 0  0.66 0.12 0  0.6899999999999999 0.12 0  0.72 0.12 0  0.75 0.12 0  0.78 0.12 0  0.8100000000000001 0.12 0  0.84 0.12 0  0.87 0.12 0  0.9 0.12 0  0.93 0.12 0  0.96 0.12 0  0.99 0.12 0  1.02 0.12 0  1.05 0.12 0  1.08 0.12 0  1.11 0.12 0  1.14 0.12 0  1.17 0.12 0  1.2 0.12 0  1.23 0.12 0  1.26 0.12 0  1.29 0.12 0  1.32 0.12 0  1.35 0.12 0  1.38 0.12 0  1.41 0.12 0  1.44 0.12 0  1.47 0.12 0  1.5 0.12 0  0 0.14 0  0.03 0.14 0  0.06 0.14 0  0.09 0.14 0  0.12 0.14 0  0.15 0.14 0  0.18 0.14 0  0.21 0.14 0  0.24 0.14 0  0.27 0.14 0  0.3 0.14 0  0.33 0.14 0  0.36 0.14 0  0.39 0.14 0  0.42 0.14 0  0.45 0.14 0  0.48 0.14 0  0.51 0.14 0  0.54 0.14 0  0.57 0.14 0  0.6 0.14 0  0.63 0.14 0  0.66 0.14 0  0.6899999999999999 0.14 0  0.72 0.14 0  0.75 0.14 0  0.78 0.14 0  0.8100000000000001 0.14 0  0.84 0.14 0  0.87 0.14 0  0.9 0.14 0  0.93 0.14 0  0.96 0.14 0  0.99 0.14 0  1.02 0.14 0  1.05 0.14 0  1.08 0.14 0  1.11 0.14 0  1.14 0.14 0  1.17 0.14 0  1.2 0.14 0  1.23 0.14 0  1.26 0.14 0  1.29 0.14 0  1.32 0.14 0  1.35 0.14 0  1.38 0.14 0  1.41 0.14 0  1.44 0.14 0  1.47 0.14 0  1.5 0.14 0  0 0.16 0  0.03 0.16 0  0.06 0.16 0  0.09 0.16 0  0.12 0.16 0  0.15 0.16 0  0.18 0.16 0  0.21 0.16 0  0.24 0.16 0  0.27 0.16 0  0.3 0.16 0  0.33 0.16 0  0.36 0.16 0  0.39 0.16 0  0.42 0.16 0  0.45 0.16 0  0.48 0.16 0  0.51 0.16 0  0.54 0.16 0  0.57 0.16 0  0.6 0.16 0  0.63 0.16 0  0.66 0.16 0  0.6899999999999999 0.16 0  0.72 0.16 0  0.75 0.16 0  0.78 0.16 0  0.8100000000000001 0.16 0  0.84 0.16 0  0.87 0.16 0  0.9 0.16 0  0.93 0.16 0  0.96 0.16 0  0.99 0.16 0  1.02 0.16 0  1.05 0.16 0  1.08 0.16 0  1.11 0.16 0  1.14 0.16 0  1.17 0.16 0  1.2 0.16 0  1.23 0.16 0  1.26 0.16 0  1.29 0.16 0  1.32 0.16 0  1.35 0.16 0  1.38 0.16 0  1.41 0.16 0  1.44 0.16 0  1.47 0.16 0  1.5 0.16 0  0 0.18 0  0.03 0.18 0  0.06 0.18 0  0.09 0.18 0  0.12 0.18 0  0.15 0.18 0  0.18 0.18 0  0.21 0.18 0  0.24 0.18 0  0.27 0.18 0  0.3 0.18 0  0.33 0.18 0  0.36 0.18 0  0.39 0.18 0  0.42 0.18 0  0.45 0.18 0  0.48 0.18 0  0.51 0.18 0  0.54 0.18 0  0.57 0.18 0  0.6 0.18 0  0.63 0.18 0  0.66 0.18 0  0.6899999999999999 0.18 0  0.72 0.18 0  0.75 0.18 0  0.78 0.18 0  0.8100000000000001 0.18 0  0.84 0.18 0  0.87 0.18 0  0.9 0.18 0  0.93 0.18 0  0.96 0.18 0  0.99 0.18 0  1.02 0.18 0  1.05 0.18 0  1.08 0.18 0  1.11 0.18 0  1.14 0.18 0  1.17 0.18 0  1.2 0.18 0  1.23 0.18 0  1.26 0.18 0  1.29 0.18 0  1.32 0.18 0  1.35 0.18 0  1.38 0.18 0  1.41 0.18 0  1.44 0.18 0  1.47 0.18 0  1.5 0.18 0  0 0.2 0  0.03 0.2 0  0.06 0.2 0  0.09 0.2 0  0.12 0.2 0  0.15 0.2 0  0.18 0.2 0  0.21 0.2 0  0.24 0.2 0  0.27 0.2 0  0.3 0.2 0  0.33 0.2 0  0.36 0.2 0  0.39 0.2 0  0.42 0.2 0  0.45 0.2 0  0.48 0.2 0  0.51 0.2 0  0.54 0.2 0  0.57 0.2 0  0.6 0.2 0  0.63 0.2 0  0.66 0.2 0  0.6899999999999999 0.2 0  0.72 0.2 0  0.75 0.2 0  0.78 0.2 0  0.8100000000000001 0.2 0  0.84 0.2 0  0.87 0.2 0  0.9 0.2 0  0.93 0.2 0  0.96 0.2 0  0.99 0.2 0  1.02 0.2 0  1.05 0.2 0  1.08 0.2 0  1.11 0.2 0  1.14 0.2 0  1.17 0.2 0  1.2 0.2 0  1.23 0.2 0  1.26 0.2 0  1.29 0.2 0  1.32 0.2 0  1.35 0.2 0  1.38 0.2 0  1.41 0.2 0  1.44 0.2 0  1.47 0.2 0  1.5 0.2 0  0 0.22 0  0.03 0.22 0  0.06 0.22 0  0.09 0.22 0  0.12 0.22 0  0.15 0.22 0  0.18 0.22 0  0.21 0.22 0  0.24 0.22 0  0.27 0.22 0  0.3 0.22 0  0.33 0.22 0  0.36 0.22 0  0.39 0.22 0  0.42 0.22 0  0.45 0.22 0  0.48 0.22 0  0.51 0.22 0  0.54 0.22 0  0.57 0.22 0  0.6 0.22 0  0.63 0.22 0  0.66 0.22 0  0.6899999999999999 0.22 0  0.72 0.22 0  0.75 0.22 0  0.78 0.22 0  0.8100000000000001 0.22 0  0.84 0.22 0  0.87 0.22 0  0.9 0.22 0  0.93 0.22 0  0.96 0.22 0  0.99 0.22 0  1.02 0.22 0  1.05 0.22 0  1.08 0.22 0  1.11 0.22 0  1.14 0.22 0  1.17 0.22 0  1.2 0.22 0  1.23 0.22 0  1.26 0.22 0  1.29 0.22 0  1.32 0.22 0  1.35 0.22 0  1.38 0.22 0  1.41 0.22 0  1.44 0.22 0  1.47 0.22 0  1.5 0.22 0  0 0.24 0  0.03 0.24 0  0.06 0.24 0  0.09 0.24 0  0.12 0.24 0  0.15 0.24 0  0.18 0.24 0  0.21 0.24 0  0.24 0.24 0  0.27 0.24 0  0.3 0.24 0  0.33 0.24 0  0.36 0.24 0  0.39 0.24 0  0.42 0.24 0  0.45 0.24 0  0.48 0.24 0  0.51 0.24 0  0.54 0.24 0  0.57 0.24 0  0.6 0.24 0  0.63 0.24 0  0.66 0.24 0  0.6899999999999999 0.24 0  0.72 0.24 0  0.75 0.24 0  0.78 0.24 0  0.8100000000000001 0.24 0  0.84 0.24 0  0.87 0.24 0  0.9 0.24 0  0.93 0.24 0  0.96 0.24 0  0.99 0.24 0  1.02 0.24 0  1.05 0.24 0  1.08 0.24 0  1.11 0.24 0  1.14 0.24 0  1.17 0.24 0  1.2 0.24 0  1.23 0.24 0  1.26 0.24 0  1.29 0.24 0  1.32 0.24 0  1.35 0.24 0  1.38 0.24 0  1.41 0.24 0  1.44 0.24 0  1.47 0.24 0  1.5 0.24 0  0 0.26 0  0.03 0.26 0  0.06 0.26 0  0.09 0.26 0  0.12 0.26 0  0.15 0.26 0  0.18 0.26 0  0.21 0.26 0  0.24 0.26 0  0.27 0.26 0  0.3 0.26 0  0.33 0.26 0  0.36 0.26 0  0.39 0.26 0  0.42 0.26 0  0.45 0.26 0  0.48 0.26 0  0.51 0.26 0  0.54 0.26 0  0.57 0.26 0  0.6 0.26 0  0.63 0.26 0  0.66 0.26 0  0.6899999999999999 0.26 0  0.72 0.26 0  0.75 0.26 0  0.78 0.26 0  0.8100000000000001 0.26 0  0.84 0.26 0  0.87 0.26 0  0.9 0.26 0  0.93 0.26 0  0.96 0.26 0  0.99 0.26 0  1.02 0.26 0  1.05 0.26 0  1.08 0.26 0  1.11 0.26 0  1.14 0.26 0  1.17 0.26 0  1.2 0.26 0  1.23 0.26 0  1.26 0.26 0  1.29 0.26 0  1.32 0.26 0  1.35 0.26 0  1.38 0.26 0  1.41 0.26 0  1.44 0.26 0  1.47 0.26 0  1.5 0.26 0  0 0.28 0  0.03 0.28 0  0.06 0.28 0  0.09 0.28 0  0.12 0.28 0  0.15 0.28 0  0.18 0.28 0  0.21 0.28 0  0.24 0.28 0  0.27 0.28 0  0.3 0.28 0  0.33 0.28 0  0.36 0.28 0  0.39 0.28 0  0.42 0.28 0  0.45 0.28 0  0.48 0.28 0  0.51 0.28 0  0.54 0.28 0  0.57 0.28 0  0.6 0.28 0  0.63 0.28 0  0.66 0.28 0  0.6899999999999999 0.28 0  0.72 0.28 0  0.75 0.28 0  0.78 0.28 0  0.8100000000000001 0.28 0  0.84 0.28 0  0.87 0.28 0  0.9 0.28 0  0.93 0.28 0  0.96 0.28 0  0.99 0.28 0  1.02 0.28
[...]
<PointData  Scalars="sensitivity"> 
<DataArray  type="Float64"  Name="sensitivity"  format="ascii">-1.0564081357847870e-06  -1.5995938026935686e-05  -6.6354057060359186e-05  -1.6902767440475102e-04  -3.2439355938484055e-04  -5.1180569384156271e-04  -7.0280916663732296e-04  -8.7467575881104839e-04  -1.0149510713679747e-03  -1.1198690622706391e-03  -1.1910850701300853e-03  -1.2329511865708076e-03  -1.2507917511613471e-03  -1.2499658492232039e-03  -1.2354269881886619e-03  -1.2115499056902872e-03  -1.1820737565979903e-03  -1.1500924284264654e-03  -1.1180756664253737e-03  -1.0879201558351283e-03  -1.0610249644279644e-03  -1.0383796094408601e-03  -1.0206525428533221e-03  -1.0082710435783003e-03  -1.0014867812568177e-03  -1.0004233370579155e-03  -1.0051031262907030e-03  -1.0154521365045249e-03  -1.0312819893869680e-03  -1.0522501158015363e-03  -1.0778002077874722e-03  -1.1070865526401120e-03  -1.1388878182679758e-03  -1.1715188529472862e-03  -1.2027520436336322e-03  -1.2297584357591426e-03  -1.2490708290238814e-03  -1.2565666864679610e-03  -1.2474839017793985e-03  -1.2165374951193728e-03  -1.1582618209813296e-03  -1.0677661151149071e-03  -9.4207118255523975e-04  -7.8241450315951735e-04  -5.9723283179580981e-04  -4.0457936314301118e-04  -2.3124296691245461e-04  -1.0384286133630127e-04  -3.2696481428489752e-05  -4.5311026899342092e-06  -3.1234154877178158e-08  -8.1958318487912235e-06  -7.2449648372640690e-05  -2.8927767117451294e-04  -7.6079213078351611e-04  -1.5073033356797273e-03  -2.4396198325459880e-03  -3.4160280494869039e-03  -4.3137278505916673e-03  -5.0597405035323825e-03  -5.6274522265195338e-03  -6.0208689451125876e-03  -6.2600505671086670e-03  -6.3714462331486161e-03  -6.3824486220566880e-03  -6.3187434717904877e-03  -6.2032292621551251e-03  -6.0556393452623914e-03  -5.8924366197979014e-03  -5.7268706475046526e-03  -5.5691966511440087e-03  -5.4270359830069174e-03  -5.3058190319179898e-03  -5.2092436686088260e-03  -5.1396982445537868e-03  -5.0986166341600104e-03  -5.0867444295682540e-03  -5.1043017340320941e-03  -5.1510329421556589e-03  -5.2261394307195098e-03  -5.3280977221161242e-03  -5.4543729423546282e-03  -5.6010445643674481e-03  -5.7623703300346569e-03  -5.9303297797220610e-03  -6.0942080895034969e-03  -6.2402778967785713e-03  -6.3516035905465638e-03  -6.4079610924846243e-03  -6.3858910958362273e-03  -6.2590995370092129e-03  -5.9998259830117565e-03  -5.5822306945599361e-03  -4.9882843892820267e-03  -4.2179161386355444e-03  -3.3034456787336798e-03  -2.3232952519291303e-03  -1.4028658160606926e-03  -6.8359633581826173e-04  -2.4813451042073368e-04  -5.8113033498411480e-05  -3.0017295471604265e-06  -2.3409067149391285e-05  -1.4056657848385257e-04  -4.2771899904491911e-04  -1.0384915942645199e-03  -1.9790649290928755e-03  -3.1215707831582459e-03  -4.2946734669115014e-03  -5.3594404242514109e-03  -6.2363142643316214e-03  -6.8983404426581603e-03  -7.3525143886076401e-03  -7.6234474895879338e-03  -7.7427654556933749e-03  -7.7430065228349543e-03  -7.6546643792127248e-03  -7.5050418082851780e-03  -7.3178159291720953e-03  -7.1128308293533860e-03  -6.9060739669790502e-03  -6.7098887622866190e-03  -6.5334004092379777e-03  -6.3830623468633272e-03  -6.2632260274636808e-03  -6.1766675127774423e-03  -6.1250319057400953e-03  -6.1091699760125818e-03  -6.1293475539513347e-03  -6.1853139814716396e-03  -6.2762233010136810e-03  -6.4004111212326784e-03  -6.5550403799983642e-03  -6.7356379571179596e-03  -6.9355523671750406e-03  -7.1453833653835445e-03  -7.3524665936982722e-03  -7.5405066403256994e-03  -7.6894163178170228e-03  -7.7752997088394822e-03  -7.7704939590116590e-03  -7.6438252549907385e-03  -7.3621353692499749e-03  -6.8941622266535324e-03  -6.2166064273684856e-03  -5.3238806201108494e-03  -4.2470162455512410e-03  -3.0688474042901048e-03  -1.9252222151811159e-03  -9.8767148431939630e-04  -3.9173841084203426e-04  -1.2474380248749553e-04  -1.4163884643334501e-05  -3.7714251510528690e-05  -2.3536956091029049e-04  -6.3431354269168918e-04  -1.3920718392402733e-03  -2.4489391225275808e-03  -3.6378658005447981e-03  -4.8008026015004274e-03  -5.8239639736015966e-03  -6.6467724370407261e-03  -7.2542661554800530e-03  -7.6585169656880779e-03  -7.8854031181607165e-03  -7.9664387299928120e-03  -7.9334042037000185e-03  -7.8159113985513690e-03  -7.6406778111937973e-03  -7.4311448713419949e-03  -7.2070899780481102e-03  -6.9844197925679665e-03  -6.7753035304983673e-03  -6.5886079032034901e-03  -6.4304847094756035e-03  -6.3049791299427992e-03  -6.2145877030262541e-03  -6.1607313290332070e-03  -6.1441176485369075e-03  -6.1649694571186730e-03  -6.2231012895759118e-03  -6.3178353296829016e-03  -6.4477595015287508e-03  -6.6103451698652669e-03  -6.8014517595935513e-03  -7.0147448656065958e-03  -7.2410751705033671e-03  -7.4679242083989551e-03  -7.6790871907254175e-03  -7.8546494643295522e-03  -7.9710628573777288e-03  -8.0013501915855399e-03  -7.9151789215142106e-03  -7.6800335901459765e-03  -7.2637836908621229e-03  -6.6426031434753865e-03  -5.8027550678070123e-03  -4.7669327315294505e-03  -3.5970032556617796e-03  -2.3986615007234435e-03  -1.3286145214701799e-03  -5.6948875668848514e-04  -2.0013026676201577e-04  -2.9341880708929666e-05  -3.4996505414871909e-05  -3.5591253954707038e-04  -1.0529947674810000e-03  -2.1308382683755660e-03  -3.3429169224069208e-03  -4.5063639503127861e-03  -5.5657629507639460e-03  -6.4638700272681418e-03  -7.1675067212026130e-03  -7.6727010892414507e-03  -7.9907139236399527e-03  -8.1452628805044613e-03  -8.1662786629201276e-03  -8.0833710542881441e-03  -7.9239636818693258e-03  -7.7133094910633773e-03  -7.4740906484855388e-03  -7.2256444229466792e-03  -6.9834419372832362e-03  -6.7591147009428386e-03  -6.5609251807251879e-03  -6.3944197969302997e-03  -6.2630817806493171e-03  -6.1689204815780826e-03  -6.1129764153114424e-03  -6.0957159198361185e-03  -6.1172847325039201e-03  -6.1775959721867739e-03  -6.2762396494747408e-03  -6.4122153024337878e-03  -6.5835131052993387e-03  -6.7865817058119790e-03  -7.0157014982748589e-03  -7.2622946981546321e-03  -7.5143063578655472e-03  -7.7559362342284844e-03  -7.9677453563729468e-03  -8.1271963933951790e-03  -8.2095369896996642e-03  -8.1865112314240072e-03  -8.0262816079460092e-03  -7.6964717057516931e-03  -7.1869005028357847e-03  -6.4752483251985394e-03  -5.5702893407721613e-03  -4.4981465511894489e-03  -3.3175852634012080e-03  -2.0718628287942058e-03  -9.5333551995857905e-04  -2.6653003211023126e-04  -3.4333696015436005e-05  -3.8390816361746740e-05  -6.6627555494710848e-04  -2.6088955728114380e-03  -5.0253908850162012e-03  -6.4070605511369529e-03  -6.9053417939117599e-03  -7.1706760836989037e-03  -7.5186796802595990e-03  -7.9084532709711563e-03  -8.2303028559272753e-03  -8.4205737957683061e-03  -8.4753463946500192e-03  -8.4162667216218633e-03  -8.2676978939221230e-03  -8.0531608467525537e-03  -7.7958583523581489e-03  -7.5176369198977295e-03  -7.2373774443619003e-03  -6.9699746855182024e-03  -6.7262682347608025e-03  -6.5136329640201693e-03  -6.3367491309102930e-03  -6.1983078183553211e-03  -6.0996324356053667e-03  -6.0412258528367820e-03  -6.0232110662096711e-03  -6.0456210871831098e-03  -6.1085041897525078e-03  -6.2118260971311184e-03  -6.3551661084732727e-03  -6.5372424886136725e-03  -6.7553343795849052e-03  -7.0046187809956481e-03  -7.2773692950348443e-03  -7.5621557816655466e-03  -7.8435620042127622e-03  -8.1027685187855282e-03  -8.3191486462346909e-03  -8.4704364697906868e-03  -8.5316400272497928e-03  -8.4795432665369999e-03  -8.2983155095770703e-03  -8.0296153299139264e-03  -7.7314301749287851e-03  -7.4910586631297361e-03  -7.2770911052929830e-03  -6.6829288369813387e-03  -4.5958103547726909e-03  -1.9262784770232510e-03  -3.8319085829788502e-04  -2.2699521758689467e-05  -3.8935662353631974e-04  -2.9004274670375550e-03  -1.0788100494365658e-02  -1.8716166999609252e-02  -2.1126962177705069e-02  -1.8704074786576892e-02  -1.4438990627546789e-02  -1.0944939031136441e-02  -9.4218823649284082e-03  -9.0629557599904379e-03  -8.9808887399642472e-03  -8.8848132925593726e-03  -8.7220136354988174e-03  -8.4920311765741656e-03  -8.2091425149584500e-03  -7.8936196187299693e-03  -7.5666749419204303e-03  -7.2469204650171346e-03  -6.9485663042451974e-03  -6.6813460955809740e-03  -6.4514083025358207e-03  -6.2622780274255311e-03  -6.1156012034592070e-03  -6.0117892739712034e-03  -5.9506242641697397e-03  -5.9317652365042297e-03  -5.9550885072388246e-03  -6.0208183057254717e-03  -6.1294230953945665e-03  -6.2812629634435646e-03  -6.4760227023258404e-03  -6.7120864427488132e-03  -6.9858718854561149e-03  -7.2908160737345570e-03  -7.6163037659511849e-03  -7.9473480633338034e-03  -8.2659899888117856e-03  -8.5528479712157282e-03  -8.7894019930482917e-03  -8.9746683842655949e-03  -9.1181966504166271e-03  -9.3004367878010714e-03  -9.9343489577587481e-03  -1.1620551395056999e-02  -1.4550313311081893e-02  -1.8388282129669680e-02  -2.1251236852747483e-02  -1.9281984468430578e-02  -1.1552785713456947e-02  -2.2294315386366752e-03  -7.9564532816795417e-05  -1.5496065875552692e-03  -1.7210575592937257e-02  -3.0072625834118447e-02  -3.0490313650488713e-02  -3.0348711026085932e-02  -2.9987127591095945e-02  -2.8673455332952364e-02  -2.3645885782673549e-02  -1.5853368698798595e-02  -1.1417909444172137e-02  -9.9350240511312249e-03  -9.4226107345110003e-03  -9.0912493212742199e-03  -8.7570751230673250e-03  -8.3910485810319291e-03  -8.0049352347200831e-03  -7.6190913218896084e-03  -7.2520993445520281e-03  -6.9172904929680644e-03  -6.6228043266389203e-03  -6.3731209661376867e-03  -6.1702888302121303e-03  -6.0146260918956945e-03  -5.9053646706036678e-03  -5.8413460331475601e-03  -5.8216200345779807e-03  -5.8458499225085871e-03  -5.9144809009381485e-03  -6.0286350734300607e-03  -6.1897055046742470e-03  -6.3986196560314821e-03  -6.6551644631418251e-03  -6.9574014120458551e-03  -7.3004841997494942e-03  -7.6752131066533816e-03  -8.0665504135282295e-03  -8.4569335266220288e-03  -8.8309672591578361e-03  -9.1949204914499663e-03  -9.6188074015213596e-03  -1.0337168091329287e-02  -1.2108852684256715e-02  -1.6047163395973996e-02  -2.2895647381703337e-02  -2.8109935902908220e-02  -2.9922606083800658e-02  -3.0658667422572082e-02  -3.0612179141682336e-02  -2.9381681690608091e-02  -1.6758865911010022e-02  -1.0399052015761718e-03  -8.6602411202310915e-03  -3.1057491198088309e-02  -3.1329254053848003e-02  -3.1269309089564400e-02  -3.1214922440356365e-02  -3.1196465627825409e-02  -3.1064348869050459e-02  -3.0206841167732666e-02  -2.8255054676143660e-02  -2.0728720322280809e-02  -1.3435511263429921e-02  -1.0566530397729187e-02  -9.6188887470346467e-03  -9.0818651799797669e-03  -8.6016543247345763e-03  -8.1282770741088421e-03  -7.6718976183466261e-03  -7.2496829076504057e-03  -6.8732697389814286e-03  -6.5482872725148560e-03  -6.2769468965634964e-03  -6.0594919514008220e-03  -5.8945961104796751e-03  -5.7799800600481198e-03  -5.7132780422599156e-03  -5.6927554421442456e-03  -5.7177902986728733e-03  -5.7890966906410614e-03  -5.9086194078429577e-03  -6.0791207801801760e-03  -6.3031148961127338e-03  -6.5820797568218624e-03  -6.9162882963423452e-03  -7.3037413591596862e-03  -7.7371156132381011e-03  -8.2012608693412901e-03  -8.6862379309607090e-03  -9.1998945675442340e-03  -9.8482721792652172e-03  -1.1131615898721367e-02  -1.4113042167528272e-02  -2.0222256346195101e-02  -2.7470028864167346e-02  -3.0211361313477708e-02  -3.1108558322698824e-02  -3.1205498875721754e-02  -3.1240788912357154e-02  -3.1284750028573671e-02  -3.1318506020602800e-02  -3.1179430125683784e-02  -6.3938016505675861e-03  -1.5574935266951133e-02  -3.1440376488399660e-02  -3.1456313173656464e-02  -3.1405087597559653e-02  -3.1408072621009329e-02  -3.1343737095193946e-02  -3.1332610369463700e-02  -3.1185753600597450e-02  -3.0685721644067691e-02  -2.9944576652638298e-02  -2.4415394545951152e-02  -1.5505074581250633e-02  -1.1159994690477132e-02  -9.6505264071697280e-03  -8.8824451052112591e-03  -8.2717938392364229e-03  -7.7244977115858487e-03  -7.2369701833828286e-03  -6.8137782671844069e-03  -6.4555112898710904e-03  -6.1611127646219949e-03  -5.9287086429215636e-03  -5.7549362033362458e-03  -5.6355517211769601e-03  -5.5666590058182390e-03  -5.5455321240286412e-03  -5.5711735817396942e-03  -5.6446047520313748e-03  -5.7687804104214514e-03  -5.9483213421603108e-03  -6.1878559171660132e-03  -6.4906582261166374e-03  -6.8601532000861333e-03  -7.2993689691739413e-03  -7.8058766576389986e-03  -8.3770336377172946e-03  -9.0323584811356251e-03  -9.9462220520285579e-03  -1.1805079071605570e-02  -1.5912793345722286e-02  -2.3583206214258832e-02  -2.9543078639176750e-02  -3.0755793998084077e-02  -3.1088979749030143e-02  -3.1285438279274484e-02  -3.1412856596539793e-02  -3.1394640127050025e-02  -3.1377632615242831e-02  -3.1378472058973345e-02  -3.1422622316024496e-02  -1.5665031657079262e-02  -1.8859453993537875e-02  -3.2810653643327609e-02  -3.1570556681838800e-02  -3.1463898845809447e-02  -3.1343376482269585e-02  -3.1386233127825312e-02  -3.1393402410143122e-02  -3.1379285775293024e-02  -3.1253846820440322e-02  -3.0927287518669504e-02  -3.0065823293930240e-02  -2.6659353212894390e-02  -1.8034856257297258e-02  -1.2016274334258862e-02  -9.6306364333413642e-03  -8.5435617921319779e-03  -7.8088901695963628e-03  -7.2245420888224880e-03  -6.7430112187892638e-03  -6.3466025862560565e-03  -6.0270078752199347e-03  -5.7793903885756063e-03  -5.5975067499464352e-03  -5.4743335473237224e-03  -5.4040394713397947e-03  -5.3826575275742984e-03  -5.4086804905727256e-03  -5.4834817486303523e-03  -5.6113060854202246e-03  -5.7992246036023291e-03  -6.0554248489383452e-03  -6.3848593793205694e-03  -6.7975077809372441e-03  -7.3092058043530009e-03  -7.9402960287403308e-03  -8.7647883088542277e-03  -1.0065073473846114e-02  -1.2687382533940604e-02  -1.7909395274753364e-02  -2.5829049876165962e-02  -3.0031793877109962e-02  -3.0993737365960092e-02  -3.1263411385761622e-02  -3.1320342190615920e-02  -3.1396441604684529e-02  -3.1368838846905188e-02  -3.1387218239603561e-02  -3.1511329501352846e-02  -3.1645364529383137e-02  -3.3152296276039453e-02  -1.7422753816621186e-02  -2.8795224442379488e-02  -4.6815614991247596e-02  -3.6364117998625836e-02  -3.1901776355977088e-02  -3.1422514882779445e-02  -3.1375011135746193e-02  -3.1388802925902654e-02  -3.1386438144438714e-02  -3.1361879618333886e-02  -3.1251933835242537e-02  -3.0947783193726333e-02  -3.0151985005294445e-02  -2.8378586112776827e-02  -2.1569922450614631e-02  -1.3900187236428765e-02  -1.0023668604066945e-02  -8.3142658580330139e-03  -7.3783745066356571e-03  -6.7483095647244574e-03  -6.2773758505897002e-03  -5.9151701410723352e-03  -5.6446103530379491e-03  -5.4516716573263608e-03  -5.3237072752773309e-03  -5.2519842728429985e-03  -5.2307125630310551e-03  -5.2575912529046641e-03  -5.3346822946314125e-03  -5.4682067248220797e-03  -5.6687886584068370e-03  -5.9547183792956577e-03  -6.3339942887843427e-03  -6.8403684332263024e-03  -7.5528295994745746e-03  -8.6653421677088515e-03  -1.0696035736476489e-02  -1.4312744562671124e-02  -2.0815929079056633e-02  -2.7637923358185504e-02  -3.0083269371402890e-02  -3.1047042988792153e-02  -3.1303009285262265e-02  -3.1355378882807337e-02  -3.1409285481578009e-02  -3.1405680442429834e-02  -3.1428610272931527e-02  -3.1478353827208962e-02  -3.2134653638378780e-02  -3.8169409615568868e-02  -4.8454689583689939e-02  -2.5627695401383811e-02  -3.5263143283005907e-02  -6.0803815693995275e-02  -4.6357167923124436e-02  -3.5966490985604428e-02  -3.1891748662444111e-02  -3.1473112130709462e-02  -3.1397972268523325e-02  -3.1387824913217233e-02  -3.1379250387140900e-02  -3.1340186299768619e-02  -3.1248332931448963e-02  -3.1017147287942744e-02  -3.0575088934069797e-02  -2.9718017782997354e-02  -2.6041894327185410e-02  -1.8550524756388985e-02  -1.2736401173240897e-02  -9.5578167653823879e-03  -7.9006547004598238e-03  -6.9582173453540267e-03  -6.3510639908478383e-03  -5.9483386863768816e-03  -5.6839062356184820e-03  -5.5174497447086418e-03  -5.4279602598205131e-03  -5.4033948816865568e-03  -5.4395860859838387e-03  -5.5416779973776328e-03  -5.7234884889705634e-03  -6.0108701877278113e-03  -6.4649412445243037e-03  -7.1425633003511825e-03  -8.2223200822409692e-03  -1.0048841447805490e-02  -1.3132608879556737e-02  -1.8211613135601056e-02  -2.5118760320189355e-02  -2.9116083935465682e-02  -3.0579254473030400e-02  -3.1033432775640218e-02  -3.1245345699492725e-02  -3.1389415199741116e-02  -3.1437523099870864e-02  -3.1439304721871099e-02  -3.1444677693327511e-02  -3.1499617206381308e-02  -3.2114722583809263e-02  -3.6839413514009718e-02  -4.6801633625773442e-02  -6.0790355887312214e-02  -3.3875488371381504e-02  -3.4203050901782321e-02  -6.3092125358768278e-02  -5.0582338789161650e-02  -4.0221354193349913e-02  -3.3727241865866620e-02  -3.1736529961743212e-02  -3.1469964128767049e-02  -3.1412059725399795e-02  -3.1398569083161479e-02  -3.1385988199894486e-02  -3.1332809300584269e-02  -3.1268684478416700e-02  -3.1163944806675579e-02  -3.0979892760510937e-02  -3.0424082030269532e-02  -2.9459304949397275e-02  -2.6127538030546849e-02  -2.1361529233602392e-02  -1.7089200746215148e-02  -1.4072365051366354e-02  -1.2107713605695692e-02  -1.0888457250350158e-02  -1.0118696969913042e-02  -9.6502871903964369e-03  -9.4041209542725240e-03  -9.3317097877922660e-03  -9.4180621055350230e-03  -9.6790572434624720e-03  -1.0152824228026668e-02  -1.0913988637496331e-02  -1.2160573065582641e-02  -1.3993397717646480e-02  -1.6699608977507038e-02  -2.0769848511891165e-02  -2.5712041052026697e-02  -2.9307703630519967e-02  -3.0357181955336321e-02  -3.0895261272575646e-02  -3.1128565633007838e-02  -3.1271193269642533e-02  -3.1401902061066522e-02  -3.1451494592383090e-02  -3.1460583615100651e-02  -3.1465060245507680e-02  -3.1507519136154377e-02  -3.1848185730281163e-02  -3.4062283428418487e-02  -4.0144343866662609e-02  -4.9975151898172830e-02  -6.2343537153262872e-02  -3.5359366320264672e-02  -2.6143202159679246e-02  -5.2754633615763012e-02  -4.6052596020794062e-02  -3.9776717280695734e-02  -3.4964741312347142e-02  -3.2303242923492348e-02  -3.1619856375765629e-02  -3.1459852150250420e-02  -3.1420533237950833e-02  -3.1413686020391442e-02  -3.1403611555984916e-02  -3.1353937374420174e-02  -3.1301486171938515e-02  -3.1271347856609261e-02  -3.1152222227717644e-02  -3.0898931841375373e-02  -3.0364136965411872e-02  -2.9730941227703818e-02  -2.9605681010527102e-02  -2.9159447909842897e-02  -2.8013530644378330e-02  -2.7152134251060101e-02  -2.6525221936123042e-02  -2.6058440849375215e-02  -2.5794729825439646e-02  -2.5711475177303437e-02  -2.5779370491462908e-02  -2.6004855183988710e-02  -2.6415138064720664e-02  -2.7000134153375870e-02  -2.7841203200136156e-02  -2.8960140266193365e-02  -2.9459419846857248e-02  -2.9742405768226877e-02  -3.0212717784615883e-02  -3.0956905706998543e-02  -3.1217587191487792e-02  -3.1228984087211125e-02  -3.1328618875100814e-02  -3.1438757120873045e-02  -3.1465777309546618e-02  -3.1470603738137599e-02  -3.1472713182803848e-02  -3.1512472734974969e-02  -3.1698943691965326e-02  -3.2417461829523764e-02  -3.4827077254083919e-02  -3.9111203132479150e-02  -4.4945138246336419e-02  -5.1502284725608881e-02  -2.9280238887296372e-02  -1.7377583147770308e-02  -3.6774394854497169e-02  -3.6311510079976933e-02  -3.5199278305432055e-02  -3.3800061931450222e-02  -3.2546419058820296e-02  -3.1846392255953170e-02  -3.1560883809146068e-02  -3.1457583512401723e-02  -3.1431846511001393e-02  -3.1440309890407234e-02  -3.1445691382717814e-02  -3.1410336653882528e-02  -3.1353860808180610e-02  -3.1326948000780688e-02  -3.1269612280325522e-02  -3.1151006920113064e-02  -3.1053706874149919e-02  -3.1033053628167936e-02  -3.0978434726616724e-02  -3.0843673444036789e-02  -3.0738522280219005e-02  -3.0745200977230654e-02  -3.0791933291925769e-02  -3.0832000921400763e-02  -3.0832175114810859e-02  -3.0809682522821090e-02  -3.0763131938626596e-02  -3.0711945523649073e-02  -3.0709550458418101e-02  -3.0769886674219597e-02  -