<?xml version="1.0"?>
<VTKFile type="UnstructuredGrid"  version="0.1"  >
<UnstructuredGrid>
<Piece  NumberOfPoints="2601" NumberOfCells="5000">
<Points>
<DataArray  type="Float64"  NumberOfComponents="3"  format="ascii">0 0 0  0.03 0 0  0.06 0 0  0.09 0 0  0.12 0 0  0.15 0 0  0.18 0 0  0.21 0 0  0.24 0 0  0.27 0 0  0.3 0 0  0.33 0 0  0.36 0 0  0.39 0 0  0.42 0 0  0.45 0 0  0.48 0 0  0.51 0 0  0.54 0 0  0.57 0 0  0.6 0 0  0.63 0 0  0.66 0 0  0.6899999999999999 0 0  0.72 0 0  0.75 0 0  0.78 0 0  0.8100000000000001 0 0  0.84 0 0  0.87 0 0  0.9 0 0  0.93 0 0  0.96 0 0  0.99 0 0  1.02 0 0  1.05 0 0  1.08 0 0  1.11 0 0  1.14 0 0  1.17 0 0  1.2 0 0  1.23 0 0  1.26 0 0  1.29 0 0  1.32 0 0  1.35 0 0  1.38 0 0  1.41 0 0  1.44 0 0  1.47 0 0  1.5 0 0  0 0.02 0  0.03 0.02 0  0.06 0.02 0  0.09 0.02 0  0.12 0.02 0  0.15 0.02 0  0.18 0.02 0  0.21 0.02 0  0.24 0.02 0  0.27 0.02 0  0.3 0.02 0  0.33 0.02 0  0.36 0.02 0  0.39 0.02 0  0.42 0.02 0  0.45 0.02 0  0.48 0.02 0  0.51 0.02 0  0.54 0.02 0  0.57 0.02 0  0.6 0.02 0  0.63 0.02 0  0.66 0.02 0  0.6899999999999999 0.02 0  0.72 0.02 0  0.75 0.02 0  0.78 0.02 0  0.8100000000000001 0.02 0  0.84 0.02 0  0.87 0.02 0  0.9 0.02 0  0.93 0.02 0  0.96 0.02 0  0.99 0.02 0  1.02 0.02 0  1.05 0.02 0  1.08 0.02 0  1.11 0.02 0  1.14 0.02 0  1.17 0.02 0  1.2 0.02 0  1.23 0.02 0  1.26 0.02 0  1.29 0.02 0  1.32 0.02 0  1.35 0.02 0  1.38 0.02 0  1.41 0.02 0  1.44 0.02 0  1.47 0.02 0  1.5 0.02 0  0 0.04 0  0.03 0.04 0  0.06 0.04 0  0.09 0.04 0  0.12 0.04 0  0.15 0.04 0  0.18 0.04 0  0.21 0.04 0  0.24 0.04 0  0.27 0.04 0  0.3 0.04 0  0.33 0.04 0  0.36 0.04 0  0.39 0.04 0  0.42 0.04 0  0.45 0.04 0  0.48 0.04 0  0.51 0.04 0  0.54 0.04 0  0.57 0.04 0  0.6 0.04 0  0.63 0.04 0  0.66 0.04 0  0.6899999999999999 0.04 0  0.72 0.04 0  0.75 0.04 0  0.78 0.04 0  0.8100000000000001 0.04 0  0.84 0.04 0  0.87 0.04 0  0.9 0.04 0  0.93 0.04 0  0.96 0.04 0  0.99 0.04 0  1.02 0.04 0  1.05 0.04 0  1.08 0.04 0  1.11 0.04 0  1.14 0.04 0  1.17 0.04 0  1.2 0.04 0  1.23 0.04 0  1.26 0.04 0  1.29 0.04 0  1.32 0.04 0  1.35 0.04 0  1.38 0.04 0  1.41 0.04 0  1.44 0.04 0  1.47 0.04 0  1.5 0.04 0  0 0.06 0  0.03 0.06 0  0.06 0.06 0  0.09 0.06 0  0.12 0.06 0  0.15 0.06 0  0.18 0.06 0  0.21 0.06 0  0.24 0.06 0  0.27 0.06 0  0.3 0.06 0  0.33 0.06 0  0.36 0.06 0  0.39 0.06 0  0.42 0.06 0  0.45 0.06 0  0.48 0.06 0  0.51 0.06 0  0.54 0.06 0  0.57 0.06 0  0.6 0.06 0  0.63 0.06 0  0.66 0.06 0  0.6899999999999999 0.06 0  0.72 0.06 0  0.75 0.06 0  0.78 0.06 0  0.8100000000000001 0.06 0  0.84 0.06 0  0.87 0.06 0  0.9 0.06 0  0.93 0.06 0  0.96 0.06 0  0.99 0.06 0  1.02 0.06 0  1.05 0.06 0  1.08 0.06 0  1.11 0.06 0  1.14 0.06 0  1.17 0.06 0  1.2 0.06 0  1.23 0.06 0  1.26 0.06 0  1.29 0.06 0  1.32 0.06 0  1.35 0.06 0  1.38 0.06 0  1.41 0.06 0  1.44 0.06 0  1.47 0.06 0  1.5 0.06 0  0 0.08 0  0.03 0.08 0  0.06 0.08 0  0.09 0.08 0  0.12 0.08 0  0.15 0.08 0  0.18 0.08 0  0.21 0.08 0  0.24 0.08 0  0.27 0.08 0  0.3 0.08 0  0.33 0.08 0  0.36 0.08 0  0.39 0.08 0  0.42 0.08 0  0.45 0.08 0  0.48 0.08 0  0.51 0.08 0  0.54 0.08 0  0.57 0.08 0  0.6 0.08 0  0.63 0.08 0  0.66 0.08 0  0.6899999999999999 0.08 0  0.72 0.08 0  0.75 0.08 0  0.78 0.08 0  0.8100000000000001 0.08 0  0.84 0.08 0  0.87 0.08 0  0.9 0.08 0  0.93 0.08 0  0.96 0.08 0  0.99 0.08 0  1.02 0.08 0  1.05 0.08 0  1.08 0.08 0  1.11 0.08 0  1.14 0.08 0  1.17 0.08 0  1.2 0.08 0  1.23 0.08 0  1.26 0.08 0  1.29 0.08 0  1.32 0.08 0  1.35 0.08 0  1.38 0.08 0  1.41 0.08 0  1.44 0.08 0  1.47 0.08 0  1.5 0.08 0  0 0.1 0  0.03 0.1 0  0.06 0.1 0  0.09 0.1 0  0.12 0.1 0  0.15 0.1 0  0.18 0.1 0  0.21 0.1 0  0.24 0.1 0  0.27 0.1 0  0.3 0.1 0  0.33 0.1 0  0.36 0.1 0  0.39 0.1 0  0.42 0.1 0  0.45 0.1 0  0.48 0.1 0  0.51 0.1 0  0.54 0.1 0  0.57 0.1 0  0.6 0.1 0  0.63 0.1 0  0.66 0.1 0  0.6899999999999999 0.1 0  0.72 0.1 0  0.75 0.1 0  0.78 0.1 0  0.8100000000000001 0.1 0  0.84 0.1 0  0.87 0.1 0  0.9 0.1 0  0.93 0.1 0  0.96 0.1 0  0.99 0.1 0  1.02 0.1 0  1.05 0.1 0  1.08 0.1 0  1.11 0.1 0  1.14 0.1 0  1.17 0.1 0  1.2 0.1 0  1.23 0.1 0  1.26 0.1 0  1.29 0.1 0  1.32 0.1 0  1.35 0.1 0  1.38 0.1 0  1.41 0.1 0  1.44 0.1 0  1.47 0.1 0  1.5 0.1 0  0 0.12 0  0.03 0.12 0  0.06 0.12 0  0.09 0.12 0  0.12 0.12 0  0.15 0.12 0  0.18 0.12 0  0.21 0.12 0  0.24 0.12 0  0.27 0.12 0  0.3 0.12 0  0.33 0.12 0  0.36 0.12 0  0.39 0.12 0  0.42 0.12 0  0.45 0.12 0  0.48 0.12 0  0.51 0.12 0  0.54 0.12 0  0.57 0.12 0  0.6 0.12 0  0.63 0.12 0  0.66 0.12 0  0.6899999999999999 0.12 0  0.72 0.12 0  0.75 0.12 0  0.78 0.12 0  0.8100000000000001 0.12 0  0.84 0.12 0  0.87 0.12 0  0.9 0.12 0  0.93 0.12 0  0.96 0.12 0  0.99 0.12 0  1.02 0.12 0  1.05 0.12 0  1.08 0.12 0  1.11 0.12 0  1.14 0.12 0  1.17 0.12 0  1.2 0.12 0  1.23 0.12 0  1.26 0.12 0  1.29 0.12 0  1.32 0.12 0  1.35 0.12 0  1.38 0.12 0  1.41 0.12 0  1.44 0.12 0  1.47 0.12 0  1.5 0.12 0  0 0.14 0  0.03 0.14 0  0.06 0.14 0  0.09 0.14 0  0.12 0.14 0  0.15 0.14 0  0.18 0.14 0  0.21 0.14 0  0.24 0.14 0  0.27 0.14 0  0.3 0.14 0  0.33 0.14 0  0.36 0.14 0  0.39 0.14 0  0.42 0.14 0  0.45 0.14 0  0.48 0.14 0  0.51 0.14 0  0.54 0.14 0  0.57 0.14 0  0.6 0.14 0  0.63 0.14 0  0.66 0.14 0  0.6899999999999999 0.14 0  0.72 0.14 0  0.75 0.14 0  0.78 0.14 0  0.8100000000000001 0.14 0  0.84 0.14 0  0.87 0.14 0  0.9 0.14 0  0.93 0.14 0  0.96 0.14 0  0.99 0.14 0  1.02 0.14 0  1.05 0.14 0  1.08 0.14 0  1.11 0.14 0  1.14 0.14 0  1.17 0.14 0  1.2 0.14 0  1.23 0.14 0  1.26 0.14 0  1.29 0.14 0  1.32 0.14 0  1.35 0.14 0  1.38 0.14 0  1.41 0.14 0  1.44 0.14 0  1.47 0.14 0  1.5 0.14 0  0 0.16 0  0.03 0.16 0  0.06 0.16 0  0.09 0.16 0  0.12 0.16 0  0.15 0.16 0  0.18 0.16 0  0.21 0.16 0  0.24 0.16 0  0.27 0.16 0  0.3 0.16 0  0.33 0.16 0  0.36 0.16 0  0.39 0.16 0  0.42 0.16 0  0.45 0.16 0  0.48 0.16 0  0.51 0.16 0  0.54 0.16 0  0.57 0.16 0  0.6 0.16 0  0.63 0.16 0  0.66 0.16 0  0.6899999999999999 0.16 0  0.72 0.16 0  0.75 0.16 0  0.78 0.16 0  0.8100000000000001 0.16 0  0.84 0.16 0  0.87 0.16 0  0.9 0.16 0  0.93 0.16 0  0.96 0.16 0  0.99 0.16 0  1.02 0.16 0  1.05 0.16 0  1.08 0.16 0  1.11 0.16 0  1.14 0.16 0  1.17 0.16 0  1.2 0.16 0  1.23 0.16 0  1.26 0.16 0  1.29 0.16 0  1.32 0.16 0  1.35 0.16 0  1.38 0.16 0  1.41 0.16 0  1.44 0.16 0  1.47 0.16 0  1.5 0.16 0  0 0.18 0  0.03 0.18 0  0.06 0.18 0  0.09 0.18 0  0.12 0.18 0  0.15 0.18 0  0.18 0.18 0  0.21 0.18 0  0.24 0.18 0  0.27 0.18 0  0.3 0.18 0  0.33 0.18 0  0.36 0.18 0  0.39 0.18 0  0.42 0.18 0  0.45 0.18 0  0.48 0.18 0  0.51 0.18 0  0.54 0.18 0  0.57 0.18 0  0.6 0.18 0  0.63 0.18 0  0.66 0.18 0  0.6899999999999999 0.18 0  0.72 0.18 0  0.75 0.18 0  0.78 0.18 0  0.8100000000000001 0.18 0  0.84 0.18 0  0.87 0.18 0  0.9 0.18 0  0.93 0.18 0  0.96 0.18 0  0.99 0.18 0  1.02 0.18 0  1.05 0.18 0  1.08 0.18 0  1.11 0.18 0  1.14 0.18 0  1.17 0.18 0  1.2 0.18 0  1.23 0.18 0  1.26 0.18 0  1.29 0.18 0  1.32 0.18 0  1.35 0.18 0  1.38 0.18 0  1.41 0.18 0  1.44 0.18 0  1.47 0.18 0  1.5 0.18 0  0 0.2 0  0.03 0.2 0  0.06 0.2 0  0.09 0.2 0  0.12 0.2 0  0.15 0.2 0  0.18 0.2 0  0.21 0.2 0  0.24 0.2 0  0.27 0.2 0  0.3 0.2 0  0.33 0.2 0  0.36 0.2 0  0.39 0.2 0  0.42 0.2 0  0.45 0.2 0  0.48 0.2 0  0.51 0.2 0  0.54 0.2 0  0.57 0.2 0  0.6 0.2 0  0.63 0.2 0  0.66 0.2 0  0.6899999999999999 0.2 0  0.72 0.2 0  0.75 0.2 0  0.78 0.2 0  0.8100000000000001 0.2 0  0.84 0.2 0  0.87 0.2 0  0.9 0.2 0  0.93 0.2 0  0.96 0.2 0  0.99 0.2 0  1.02 0.2 0  1.05 0.2 0  1.08 0.2 0  1.11 0.2 0  1.14 0.2 0  1.17 0.2 0  1.2 0.2 0  1.23 0.2 0  1.26 0.2 0  1.29 0.2 0  1.32 0.2 0  1.35 0.2 0  1.38 0.2 0  1.41 0.2 0  1.44 0.2 0  1.47 0.2 0  1.5 0.2 0  0 0.22 0  0.03 0.22 0  0.06 0.22 0  0.09 0.22 0  0.12 0.22 0  0.15 0.22 0  0.18 0.22 0  0.21 0.22 0  0.24 0.22 0  0.27 0.22 0  0.3 0.22 0  0.33 0.22 0  0.36 0.22 0  0.39 0.22 0  0.42 0.22 0  0.45 0.22 0  0.48 0.22 0  0.51 0.22 0  0.54 0.22 0  0.57 0.22 0  0.6 0.22 0  0.63 0.22 0  0.66 0.22 0  0.6899999999999999 0.22 0  0.72 0.22 0  0.75 0.22 0  0.78 0.22 0  0.8100000000000001 0.22 0  0.84 0.22 0  0.87 0.22 0  0.9 0.22 0  0.93 0.22 0  0.96 0.22 0  0.99 0.22 0  1.02 0.22 0  1.05 0.22 0  1.08 0.22 0  1.11 0.22 0  1.14 0.22 0  1.17 0.22 0  1.2 0.22 0  1.23 0.22 0  1.26 0.22 0  1.29 0.22 0  1.32 0.22 0  1.35 0.22 0  1.38 0.22 0  1.41 0.22 0  1.44 0.22 0  1.47 0.22 0  1.5 0.22 0  0 0.24 0  0.03 0.24 0  0.06 0.24 0  0.09 0.24 0  0.12 0.24 0  0.15 0.24 0  0.18 0.24 0  0.21 0.24 0  0.24 0.24 0  0.27 0.24 0  0.3 0.24 0  0.33 0.24 0  0.36 0.24 0  0.39 0.24 0  0.42 0.24 0  0.45 0.24 0  0.48 0.24 0  0.51 0.24 0  0.54 0.24 0  0.57 0.24 0  0.6 0.24 0  0.63 0.24 0  0.66 0.24 0  0.6899999999999999 0.24 0  0.72 0.24 0  0.75 0.24 0  0.78 0.24 0  0.8100000000000001 0.24 0  0.84 0.24 0  0.87 0.24 0  0.9 0.24 0  0.93 0.24 0  0.96 0.24 0  0.99 0.24 0  1.02 0.24 0  1.05 0.24 0  1.08 0.24 0  1.11 0.24 0  1.14 0.24 0  1.17 0.24 0  1.2 0.24 0  1.23 0.24 0  1.26 0.24 0  1.29 0.24 0  1.32 0.24 0  1.35 0.24 0  1.38 0.24 0  1.41 0.24 0  1.44 0.24 0  1.47 0.24 0  1.5 0.24 0  0 0.26 0  0.03 0.26 0  0.06 0.26 0  0.09 0.26 0  0.12 0.26 0  0.15 0.26 0  0.18 0.26 0  0.21 0.26 0  0.24 0.26 0  0.27 0.26 0  0.3 0.26 0  0.33 0.26 0  0.36 0.26 0  0.39 0.26 0  0.42 0.26 0  0.45 0.26 0  0.48 0.26 0  0.51 0.26 0  0.54 0.26 0  0.57 0.26 0  0.6 0.26 0  0.63 0.26 0  0.66 0.26 0  0.6899999999999999 0.26 0  0.72 0.26 0  0.75 0.26 0  0.78 0.26 0  0.8100000000000001 0.26 0  0.84 0.26 0  0.87 0.26 0  0.9 0.26 0  0.93 0.26 0  0.96 0.26 0  0.99 0.26 0  1.02 0.26 0  1.05 0.26 0  1.08 0.26 0  1.11 0.26 0  1.14 0.26 0  1.17 0.26 0  1.2 0.26 0  1.23 0.26 0  1.26 0.26 0  1.29 0.26 0  1.32 0.26 0  1.35 0.26 0  1.38 0.26 0  1.41 0.26 0  1.44 0.26 0  1.47 0.26 0  1.5 0.26 0  0 0.28 0  0.03 0.28 0  0.06 0.28 0  0.09 0.28 0  0.12 0.28 0  0.15 0.28 0  0.18 0.28 0  0.21 0.28 0  0.24 0.28 0  0.27 0.28 0  0.3 0.28 0  0.33 0.28 0  0.36 0.28 0  0.39 0.28 0  0.42 0.28 0  0.45 0.28 0  0.48 0.28 0  0.51 0.28 0  0.54 0.28 0  0.57 0.28 0  0.6 0.28 0  0.63 0.28 0  0.66 0.28 0  0.6899999999999999 0.28 0  0.72 0.28 0  0.75 0.28 0  0.78 0.28 0  0.8100000000000001 0.28 0  0.84 0.28 0  0.87 0.28 0  0.9 0.28 0  0.93 0.28 0  0.96 0.28 0  0.99 0.28 0  1.02 0.28
[...]
<PointData  Scalars="sensitivity"> 
<DataArray  type="Float64"  Name="sensitivity"  format="ascii">-7.5689882514479275e-07  -1.3745960512021195e-05  -5.6468218700523981e-05  -1.4192975917810290e-04  -2.6915727627374283e-04  -4.2174443753858934e-04  -5.7942813353278953e-04  -7.2437157588562577e-04  -8.4215506111743265e-04  -9.2585823104911810e-04  -9.7953187531198528e-04  -1.0135986441040723e-03  -1.0356337584450474e-03  -1.0458071619953544e-03  -1.0403885023146386e-03  -1.0186189273138752e-03  -9.8567731097218129e-04  -9.4963574955424007e-04  -9.1680018386365439e-04  -8.8980016296585137e-04  -8.6860539074286856e-04  -8.5235512213929830e-04  -8.4043273320007510e-04  -8.3257799821116881e-04  -8.2859230641081096e-04  -8.2816153528206076e-04  -8.3097180002295198e-04  -8.3704856572358762e-04  -8.4713642962742236e-04  -8.6280229983650531e-04  -8.8581223536856333e-04  -9.1649501702043999e-04  -9.5164870909261983e-04  -9.8401295641843559e-04  -1.0057475243626379e-03  -1.0146729104330210e-03  -1.0165276605406974e-03  -1.0187448359750819e-03  -1.0207411102357000e-03  -1.0100022480281840e-03  -9.6893614562222499e-04  -8.8784074453621825e-04  -7.7105235809635415e-04  -6.3031728587856738e-04  -4.7677445839875479e-04  -3.2259278458646331e-04  -1.8572440661762272e-04  -8.4905266036527254e-05  -2.7507499377150176e-05  -3.7023964228138998e-06  -8.4752866345028401e-09  -7.2349300553853918e-06  -7.2288842608516296e-05  -2.8824243299511971e-04  -7.4809917975930109e-04  -1.4636575110037035e-03  -2.3491076203665208e-03  -3.2865838199805293e-03  -4.1690172486938369e-03  -4.9041431819156012e-03  -5.4367190661001206e-03  -5.7787966896223862e-03  -5.9926954030662238e-03  -6.1333444362075299e-03  -6.2095502494036890e-03  -6.1971293651128185e-03  -6.0828954328723261e-03  -5.8916051444246609e-03  -5.6724678078413958e-03  -5.4682461425388917e-03  -5.2989164882938818e-03  -5.1657923604240203e-03  -5.0633426294656976e-03  -4.9871766323162387e-03  -4.9355079971368943e-03  -4.9072969219405224e-03  -4.9007519128814528e-03  -4.9136644122818422e-03  -4.9453087829164676e-03  -4.9989517560988638e-03  -5.0832871551580580e-03  -5.2100692758424941e-03  -5.3853922618578090e-03  -5.5960862076996449e-03  -5.8017883819526011e-03  -5.9502455556636981e-03  -6.0168092444085174e-03  -6.0295223647160714e-03  -6.0405697609329911e-03  -6.0635690073199506e-03  -6.0358743786720044e-03  -5.8473455304990981e-03  -5.4211655537269214e-03  -4.7691894894448033e-03  -3.9616161170404575e-03  -3.0666327144639920e-03  -2.1480524930759955e-03  -1.3015227404136957e-03  -6.4294074403864357e-04  -2.3956738709411308e-04  -5.6327842571206000e-05  -2.5139906437674259e-06  -2.0955257206438882e-05  -1.4310853071215136e-04  -4.4218870457178036e-04  -1.0676974921466789e-03  -2.0176205297988570e-03  -3.1647543021015309e-03  -4.3682582363465550e-03  -5.5058221991434080e-03  -6.4526715423044246e-03  -7.1214837738598057e-03  -7.5297104214847735e-03  -7.7781810240939381e-03  -7.9533052596751138e-03  -8.0620639489519894e-03  -8.0542961558615327e-03  -7.8982780226377718e-03  -7.6285430490320109e-03  -7.3216904262587519e-03  -7.0421381795958311e-03  -6.8161115146944500e-03  -6.6411295551866024e-03  -6.5064720363392867e-03  -6.4054679269166300e-03  -6.3364676407632655e-03  -6.2988281518393200e-03  -6.2901451206102089e-03  -6.3066586037994858e-03  -6.3460623857141511e-03  -6.4115171533019669e-03  -6.5148915097065089e-03  -6.6751901578871236e-03  -6.9070918979102702e-03  -7.1990562756133972e-03  -7.4945498015122321e-03  -7.7082781896361946e-03  -7.7925491508480027e-03  -7.7915211515766072e-03  -7.8008597615837972e-03  -7.8606347546168118e-03  -7.8858279268388762e-03  -7.7034499574503753e-03  -7.1859671257169608e-03  -6.3553507335334450e-03  -5.3276004596507212e-03  -4.1940846834283953e-03  -3.0125858631038852e-03  -1.8880924628629043e-03  -9.7880892863685259e-04  -4.0011056755725365e-04  -1.2947652060647349e-04  -1.2980669910320347e-05  -3.4141485202508939e-05  -2.4032190405871276e-04  -6.5977070459491362e-04  -1.4482765779441293e-03  -2.5300505682879192e-03  -3.7316046103711108e-03  -4.9405655663770660e-03  -6.0752299753888987e-03  -7.0039963039169612e-03  -7.6119453459974886e-03  -7.9300320638736477e-03  -8.1078317863184958e-03  -8.2608678434520771e-03  -8.3803091044003814e-03  -8.3747486682378899e-03  -8.1866307987690737e-03  -7.8618428095897017e-03  -7.5049648205348781e-03  -7.1955784760379306e-03  -6.9568487167442385e-03  -6.7761984391984335e-03  -6.6361051848706550e-03  -6.5290285375386040e-03  -6.4554182053081942e-03  -6.4162145618637725e-03  -6.4088310337423347e-03  -6.4279271800277834e-03  -6.4689543286421151e-03  -6.5333569316235246e-03  -6.6340611951783866e-03  -6.7964255476631631e-03  -7.0464132333573114e-03  -7.3815092970056567e-03  -7.7371432349728911e-03  -7.9943647469311579e-03  -8.0740348943574777e-03  -8.0371827690198447e-03  -8.0366642519401985e-03  -8.1551181211707395e-03  -8.2972131431837664e-03  -8.2242480262210427e-03  -7.7466470697694651e-03  -6.9053964455176343e-03  -5.8812858540542821e-03  -4.7786984821463702e-03  -3.5864366846454889e-03  -2.3640830780662214e-03  -1.3042223889451891e-03  -5.7594609513258652e-04  -2.1413852248169951e-04  -2.8391742093555253e-05  -3.3048829337521203e-05  -3.7171985708127115e-04  -1.1457285285692222e-03  -2.3773916388272177e-03  -3.6929465372565365e-03  -4.8689177107736226e-03  -5.9730738426779176e-03  -7.0050069413095375e-03  -7.7923094299082191e-03  -8.2038877223832574e-03  -8.3208524335926671e-03  -8.3607652962722073e-03  -8.4649736209060061e-03  -8.5899863871498078e-03  -8.5798491665663775e-03  -8.3405310362664239e-03  -7.9389048891710182e-03  -7.5201700650038821e-03  -7.1805409309067467e-03  -6.9340567786048057e-03  -6.7520594703612217e-03  -6.6079610271735012e-03  -6.4943754679714734e-03  -6.4156333899216223e-03  -6.3750685435382138e-03  -6.3698010467676961e-03  -6.3924652876438271e-03  -6.4355646860769439e-03  -6.4977039579028383e-03  -6.5919224711912874e-03  -6.7506986761809171e-03  -7.0150410758129302e-03  -7.3979587562127769e-03  -7.8317002633365319e-03  -8.1537915280323874e-03  -8.2313723419271470e-03  -8.1427818593741274e-03  -8.1269069175284574e-03  -8.3388549773598004e-03  -8.6834373073979843e-03  -8.8223494011089292e-03  -8.4566255377758991e-03  -7.6651165692681262e-03  -6.7668371494689957e-03  -5.8917066358506959e-03  -4.8245871148085793e-03  -3.4620770813783394e-03  -2.0600897401875434e-03  -9.3890117060341043e-04  -2.9532172174891023e-04  -3.7376484636820390e-05  -2.8914498647004457e-05  -6.9603214703133835e-04  -3.0297820631794998e-03  -6.3126732636227924e-03  -8.4672639406943150e-03  -8.8361884456438430e-03  -8.7409419960303315e-03  -9.0593796977069801e-03  -9.3982979535723529e-03  -9.2867392797417337e-03  -8.9244020773327597e-03  -8.6891737735154285e-03  -8.7087581212240538e-03  -8.8401898002883287e-03  -8.8171044104069611e-03  -8.4974542847091987e-03  -7.9884021932537380e-03  -7.4921924787879450e-03  -7.1202873416384045e-03  -6.8691009756883421e-03  -6.6872901706208658e-03  -6.5374181579804643e-03  -6.4142221397333480e-03  -6.3282147581157485e-03  -6.2857896537060996e-03  -6.2833999905571496e-03  -6.3112443066941784e-03  -6.3583491310655335e-03  -6.4192530145085382e-03  -6.5057082066687097e-03  -6.6573597075677039e-03  -6.9335568893585933e-03  -7.3690306878887845e-03  -7.9014965735104380e-03  -8.3195603954244884e-03  -8.4056422703021293e-03  -8.2510031945278450e-03  -8.2190349207789393e-03  -8.5769373404000135e-03  -9.2363612987471228e-03  -9.7351737373961925e-03  -9.6179503909730180e-03  -9.1641334300578726e-03  -9.0748703069629035e-03  -9.4396426110768938e-03  -9.3533319333764242e-03  -8.0754051304658490e-03  -5.1944292732815645e-03  -2.0096749444403045e-03  -3.9161675675829959e-04  -2.8866961384116895e-05  -2.0342733384553512e-04  -3.0602763477325361e-03  -1.2103584734542885e-02  -1.9837131623815694e-02  -2.3009024629775651e-02  -2.1600751736463267e-02  -1.8070232676284194e-02  -1.5140241736981787e-02  -1.3320921489058073e-02  -1.1737383281053414e-02  -1.0221050114557909e-02  -9.3050357165724087e-03  -9.0669388272256197e-03  -9.1671300251078072e-03  -9.1289333590985153e-03  -8.7003359145048885e-03  -8.0457539256306512e-03  -7.4521593285658636e-03  -7.0445508624084087e-03  -6.7908761514712188e-03  -6.6094228656169221e-03  -6.4500426980639847e-03  -6.3124980002759335e-03  -6.2163695097164394e-03  -6.1714698758192146e-03  -6.1728142028810136e-03  -6.2078477873458611e-03  -6.2618724122032810e-03  -6.3240543706898199e-03  -6.4028702288346272e-03  -6.5442825162022131e-03  -6.8297944866530210e-03  -7.3182682921882278e-03  -7.9649993194275629e-03  -8.5203155223376667e-03  -8.6457570065715389e-03  -8.4309752699192071e-03  -8.4117929211977010e-03  -9.0101563349247737e-03  -1.0164538486891432e-02  -1.1343846111831689e-02  -1.2169725376296951e-02  -1.3256322773327030e-02  -1.5480622872052104e-02  -1.8719749731738723e-02  -2.1099005518921059e-02  -2.1350895703511726e-02  -2.0279703398659959e-02  -1.3176942151091900e-02  -2.1994458123766355e-03  -2.5899962364851167e-05  -1.4426784848021405e-03  -1.6658692230031757e-02  -2.8273524732869273e-02  -2.9577187096626191e-02  -2.9228288417547519e-02  -2.8538285087253579e-02  -2.7108592048336971e-02  -2.5615065366315141e-02  -2.2738232915061600e-02  -1.7997998665975869e-02  -1.3389517518995447e-02  -1.0787492140741078e-02  -9.8743565428921504e-03  -9.6779472143609258e-03  -9.4992037974637438e-03  -8.9343800096740242e-03  -8.1202063857104996e-03  -7.4158911888013062e-03  -6.9666173365049260e-03  -6.7089751107643984e-03  -6.5246242134159834e-03  -6.3488711847838860e-03  -6.1902177527615480e-03  -6.0805348120389928e-03  -6.0326558672984202e-03  -6.0386999167091858e-03  -6.0831866606103728e-03  -6.1479000154788382e-03  -6.2152551178132689e-03  -6.2873535955464167e-03  -6.4150185639566728e-03  -6.7089810693853414e-03  -7.2468518044988654e-03  -8.0177763735193759e-03  -8.7567012194857373e-03  -8.9847038390273668e-03  -8.7629563762126883e-03  -8.8350320206189784e-03  -9.8502929891083786e-03  -1.2041133170934942e-02  -1.5279204287780098e-02  -1.8288843581110357e-02  -2.1615195611618464e-02  -2.4492751951943014e-02  -2.5898921620052674e-02  -2.6714977886885687e-02  -2.7176896881856826e-02  -3.0512903821863342e-02  -3.9453163513986707e-02  -2.0728778777383799e-02  -3.7094767618214218e-04  -8.4255169577316970e-03  -3.3981644084018325e-02  -3.2674032414872337e-02  -2.9157829573383431e-02  -2.8167863788894656e-02  -2.8122712056158530e-02  -2.8172818960185871e-02  -2.8074755517703165e-02  -2.8445262210894145e-02  -2.7456160652553345e-02  -2.1384277695071854e-02  -1.4719555302029248e-02  -1.1809906294329422e-02  -1.0946892352038629e-02  -1.0217041761940975e-02  -9.2329036439656158e-03  -8.1949579769061472e-03  -7.3845229915316937e-03  -6.8937239685529705e-03  -6.6304146745229751e-03  -6.4383650507340564e-03  -6.2358849846145571e-03  -6.0464832223064129e-03  -5.9188527547147035e-03  -5.8673215730832380e-03  -5.8786133655334694e-03  -5.9343885963995405e-03  -6.0139150953015547e-03  -6.0914499544375347e-03  -6.1582868238388589e-03  -6.2704120712922745e-03  -6.5819836406678109e-03  -7.1848813781895124e-03  -8.1089891029928023e-03  -9.0843874310505453e-03  -9.5691446168126686e-03  -9.4370240726766134e-03  -9.8018968856750290e-03  -1.2016647429858246e-02  -1.6498830038324259e-02  -2.2179593466176026e-02  -2.7345452289459466e-02  -2.7526083597435875e-02  -2.7407493447533238e-02  -2.7777360469551080e-02  -2.7671326030076958e-02  -2.8194033517127577e-02  -3.0264687800797701e-02  -3.7754226916648433e-02  -4.8093886177112320e-02  -7.7350936167900263e-03  -1.5255205877359570e-02  -3.5045115398400509e-02  -3.3687044403922110e-02  -3.0178287256079107e-02  -2.7704019452239350e-02  -2.7464543225451069e-02  -2.8163295285655952e-02  -2.8577656466891629e-02  -2.8658648594409027e-02  -2.8906983040504434e-02  -2.8609159216469424e-02  -2.4581131945991846e-02  -1.7638999935761651e-02  -1.3960283888606668e-02  -1.2124802121254514e-02  -1.0244845735375265e-02  -8.5802334653824752e-03  -7.4807577526454514e-03  -6.8764672754339203e-03  -6.5776891775359524e-03  -6.3666411500073843e-03  -6.1246449552874440e-03  -5.8915638186295945e-03  -5.7400510400902154e-03  -5.6838407956036818e-03  -5.7003105743394329e-03  -5.7689421234405963e-03  -5.8694822939843487e-03  -5.9676892716142701e-03  -6.0397565832178545e-03  -6.1490563509852547e-03  -6.5184417936947712e-03  -7.2625893341466781e-03  -8.3773726136711670e-03  -9.5845255162206391e-03  -1.0832142364419360e-02  -1.1590152780858461e-02  -1.3309586526760507e-02  -1.7412575970288873e-02  -2.3617608423547775e-02  -2.8372705008081200e-02  -2.9680577088048232e-02  -2.9320360238886671e-02  -2.8786282686587183e-02  -2.8289612245541884e-02  -2.7930493991526441e-02  -2.8923340419645789e-02  -3.1282403127671658e-02  -3.3919555240601938e-02  -3.4987264556620816e-02  -1.8074144079028586e-02  -1.9995167826505417e-02  -3.4607905956528628e-02  -3.3739409776504255e-02  -3.5082660638368179e-02  -3.3084900805614124e-02  -2.9983857324324282e-02  -2.8960655973138651e-02  -2.8865686256888637e-02  -2.8857489938427142e-02  -2.8604211444666829e-02  -2.7927310475336201e-02  -2.7735188503997182e-02  -2.7343652020536624e-02  -2.1444019623704610e-02  -1.5720298571600125e-02  -1.2579196949266862e-02  -9.9835671165283933e-03  -8.2470351080796648e-03  -7.2761446277390812e-03  -6.7913753244634029e-03  -6.4717599926632447e-03  -6.1341973751082067e-03  -5.8210656600291158e-03  -5.6269317003185782e-03  -5.5595069402415206e-03  -5.5798621282473872e-03  -5.6656231638753662e-03  -5.8027186934843803e-03  -5.9506931056569207e-03  -6.0673441955278852e-03  -6.2201465917288909e-03  -6.7185395207641696e-03  -7.8455861570357541e-03  -9.1381617953436439e-03  -1.0358442956728360e-02  -1.3231692979035444e-02  -1.6833880655747958e-02  -2.1473533545271675e-02  -2.4696767674725999e-02  -2.6126385980609932e-02  -2.8146189005890068e-02  -2.9638272914155484e-02  -2.9791038058573083e-02  -2.9097128701959012e-02  -2.9256500665106475e-02  -3.1227307115376433e-02  -3.2882678688466949e-02  -3.2790560548768985e-02  -3.2941953160672860e-02  -3.5068936649823031e-02  -1.9586144954256725e-02  -2.9284194755914053e-02  -4.7931086462237114e-02  -3.7771504931943277e-02  -3.5536066763646047e-02  -3.6799330639548371e-02  -3.5203148924429675e-02  -3.2042809969434267e-02  -3.0252022311632674e-02  -2.9387528989791495e-02  -2.8416831818661555e-02  -2.7472832587864992e-02  -2.6784484963800946e-02  -2.6919236488354766e-02  -2.7876254747026197e-02  -2.3086178040493368e-02  -1.7329800650935815e-02  -1.3445723189364617e-02  -1.0327205590154195e-02  -8.5414220999764506e-03  -7.7177037425552562e-03  -7.1720959507068560e-03  -6.6102117653219850e-03  -6.1322090235020575e-03  -5.8533311558812010e-03  -5.7560239255753584e-03  -5.7736363990148320e-03  -5.8829453713523661e-03  -6.0834736248087610e-03  -6.3288917050434339e-03  -6.5499549270057770e-03  -6.8250740440875049e-03  -7.5672178998729611e-03  -9.4559629271142830e-03  -1.2005769174851017e-02  -1.3756141337902813e-02  -1.4236998489541273e-02  -2.4486695222154027e-02  -2.6096166724523109e-02  -2.5501022547237160e-02  -2.6116447177720156e-02  -2.7905593732908740e-02  -2.9571814297295270e-02  -2.9845902860974372e-02  -3.0451015268313130e-02  -3.2565472463784044e-02  -3.4621337158966085e-02  -3.5102785405474783e-02  -3.5360757371561885e-02  -3.9580668438009295e-02  -4.9390855870236290e-02  -2.6412798596925840e-02  -3.5528200556675660e-02  -6.1140002022667624e-02  -4.6708981267341160e-02  -3.7406012608347583e-02  -3.6140593362954838e-02  -3.7401810483054451e-02  -3.5907112214300013e-02  -3.2906356336417308e-02  -3.0875754238726755e-02  -2.9501419239483725e-02  -2.7829046596464665e-02  -2.6434946021972012e-02  -2.6347519093052236e-02  -2.7003799076633292e-02  -2.7850480577420185e-02  -2.5419521969942700e-02  -2.2859980300277388e-02  -1.7878555056383489e-02  -1.3283366106612628e-02  -1.1090313435559900e-02  -1.0085481171735815e-02  -9.0779950465102836e-03  -8.2090214084044426e-03  -7.7312482810218616e-03  -7.5692156434215355e-03  -7.5830292887955272e-03  -7.7467697270728201e-03  -8.1002479045342319e-03  -8.6168535440760575e-03  -9.1931029427066661e-03  -9.9106796474782363e-03  -1.1299110852972239e-02  -1.4145371836078738e-02  -1.8446152157821596e-02  -2.1975900838517106e-02  -2.5942565399326017e-02  -2.7535420745625264e-02  -2.6038390874118016e-02  -2.5895323107676480e-02  -2.6923242358248403e-02  -2.8750760453169620e-02  -2.9776000031508085e-02  -3.1024493682690620e-02  -3.3250691107667936e-02  -3.5569560636649705e-02  -3.6497968877637184e-02  -3.6211765510439961e-02  -3.8585068919519877e-02  -4.7732123562290875e-02  -6.1364289545837072e-02  -3.4215225549293203e-02  -3.4467065638908223e-02  -6.3187486236668811e-02  -5.0327099254119205e-02  -4.0315544666754362e-02  -3.5961830600747688e-02  -3.6864426320758398e-02  -3.7629025157658105e-02  -3.5916991966536436e-02  -3.3224472262647881e-02  -3.1229533241953874e-02  -2.9755054711944194e-02  -2.7933269172410416e-02  -2.6414930352813573e-02  -2.6631731108701442e-02  -2.7453209976578012e-02  -2.7171772045960677e-02  -2.5967226633244460e-02  -2.5214804234752437e-02  -2.3683809703391078e-02  -2.1223305746744619e-02  -1.9593187580597218e-02  -1.8175909160375810e-02  -1.6717734627913334e-02  -1.5792001893672046e-02  -1.5444051741406060e-02  -1.5410014012363587e-02  -1.5592992770168968e-02  -1.6063670520773461e-02  -1.6841834562644091e-02  -1.7819125666148228e-02  -1.8956356799331331e-02  -2.0570460595538270e-02  -2.2853427579724913e-02  -2.5103567316360369e-02  -2.6551470669579715e-02  -2.7048477879054334e-02  -2.7107421307667825e-02  -2.6941345635030946e-02  -2.7662144294524734e-02  -2.8659518747469463e-02  -2.9559913471072178e-02  -3.1191775188500640e-02  -3.3498424287348290e-02  -3.5842473409866939e-02  -3.7198832808572467e-02  -3.6907518761497372e-02  -3.6650429786121694e-02  -4.0823591960153630e-02  -5.0059393166049085e-02  -6.2600762920834691e-02  -3.5626391617192318e-02  -2.6772760098271745e-02  -5.2885452081488739e-02  -4.5658518422209908e-02  -3.9446804971936401e-02  -3.6079271764668283e-02  -3.6163128041831173e-02  -3.7554105831084275e-02  -3.7506702355521643e-02  -3.5749091958522855e-02  -3.3375172377036438e-02  -3.1507334984030251e-02  -3.0141666325718394e-02  -2.8573160653890432e-02  -2.7100310414270065e-02  -2.6811405901347424e-02  -2.7014878511789762e-02  -2.6146646248870160e-02  -2.4912392529152047e-02  -2.4340856098641506e-02  -2.4289238140752328e-02  -2.4370359172134339e-02  -2.3932985767024635e-02  -2.3220475667407519e-02  -2.2899320796937243e-02  -2.2991984947979209e-02  -2.3154171600555516e-02  -2.3242289684283674e-02  -2.3374771118948333e-02  -2.3562962239021504e-02  -2.3603482091217654e-02  -2.3405001521475666e-02  -2.3309529193011158e-02  -2.3845585677031954e-02  -2.5061210796602014e-02  -2.6435136262390684e-02  -2.7392102500420124e-02  -2.8046274432976574e-02  -2.8739500969768007e-02  -2.9069535892779826e-02  -2.9705122617859969e-02  -3.1299634816993091e-02  -3.3518127424447978e-02  -3.5768071381959345e-02  -3.7315017325701409e-02  -3.7543984533437852e-02  -3.6656650659083100e-02  -3.6556463733031432e-02  -3.9212146586968512e-02  -4.4677584046555842e-02  -5.1861176211785237e-02  -2.9674907485001848e-02  -1.9239427873359763e-02  -3.7470783614891520e-02  -3.6441041920891835e-02  -3.5576545106365952e-02  -3.5045026965549578e-02  -3.5577616864466755e-02  -3.6858515237000310e-02  -3.7629032844643293e-02  -3.7131741533547875e-02  -3.5498891027166031e-02  -3.3370940925977435e-02  -3.1573296203986141e-02  -3.0331838815349146e-02  -2.9123819619205949e-02  -2.7771155046714388e-02  -2.6842389571943230e-02  -2.6331554312404408e-02  -2.5756448264072168e-02  -2.5330538451075014e-02  -2.5441474679702925e-02  -2.5788431871872262e-02  -2.5662224960032128e-02  -2.5102386386265739e-02  -2.4783942163183369e-02  -2.4888034396573777e-02  -2.5127080954638267e-02  -2.5282589777817957e-02  -2.5391961952049267e-02  -2.5495432461797907e-02  -2.5466876928666265e-02  -2.5227521834980313e-02  -