<?xml version="1.0"?>
<VTKFile type="UnstructuredGrid"  version="0.1"  >
<UnstructuredGrid>
<Piece  NumberOfPoints="2601" NumberOfCells="5000">
<Points>
<DataArray  type="Float64"  NumberOfComponents="3"  format="ascii">0 0 0  0.03 0 0  0.06 0 0  0.09 0 0  0.12 0 0  0.15 0 0  0.18 0 0  0.21 0 0  0.24 0 0  0.27 0 0  0.3 0 0  0.33 0 0  0.36 0 0  0.39 0 0  0.42 0 0  0.45 0 0  0.48 0 0  0.51 0 0  0.54 0 0  0.57 0 0  0.6 0 0  0.63 0 0  0.66 0 0  0.6899999999999999 0 0  0.72 0 0  0.75 0 0  0.78 0 0  0.8100000000000001 0 0  0.84 0 0  0.87 0 0  0.9 0 0  0.93 0 0  0.96 0 0  0.99 0 0  1.02 0 0  1.05 0 0  1.08 0 0  1.11 0 0  1.14 0 0  1.17 0 0  1.2 0 0  1.23 0 0  1.26 0 0  1.29 0 0  1.32 0 0  1.35 0 0  1.38 0 0  1.41 0 0  1.44 0 0  1.47 0 0  1.5 0 0  0 0.02 0  0.03 0.02 0  0.06 0.02 0  0.09 0.02 0  0.12 0.02 0  0.15 0.02 0  0.18 0.02 0  0.21 0.02 0  0.24 0.02 0  0.27 0.02 0  0.3 0.02 0  0.33 0.02 0  0.36 0.02 0  0.39 0.02 0  0.42 0.02 0  0.45 0.02 0  0.48 0.02 0  0.51 0.02 0  0.54 0.02 0  0.57 0.02 0  0.6 0.02 0  0.63 0.02 0  0.66 0.02 0  0.6899999999999999 0.02 0  0.72 0.02 0  0.75 0.02 0  0.78 0.02 0  0.8100000000000001 0.02 0  0.84 0.02 0  0.87 0.02 0  0.9 0.02 0  0.93 0.02 0  0.96 0.02 0  0.99 0.02 0  1.02 0.02 0  1.05 0.02 0  1.08 0.02 0  1.11 0.02 0  1.14 0.02 0  1.17 0.02 0  1.2 0.02 0  1.23 0.02 0  1.26 0.02 0  1.29 0.02 0  1.32 0.02 0  1.35 0.02 0  1.38 0.02 0  1.41 0.02 0  1.44 0.02 0  1.47 0.02 0  1.5 0.02 0  0 0.04 0  0.03 0.04 0  0.06 0.04 0  0.09 0.04 0  0.12 0.04 0  0.15 0.04 0  0.18 0.04 0  0.21 0.04 0  0.24 0.04 0  0.27 0.04 0  0.3 0.04 0  0.33 0.04 0  0.36 0.04 0  0.39 0.04 0  0.42 0.04 0  0.45 0.04 0  0.48 0.04 0  0.51 0.04 0  0.54 0.04 0  0.57 0.04 0  0.6 0.04 0  0.63 0.04 0  0.66 0.04 0  0.6899999999999999 0.04 0  0.72 0.04 0  0.75 0.04 0  0.78 0.04 0  0.8100000000000001 0.04 0  0.84 0.04 0  0.87 0.04 0  0.9 0.04 0  0.93 0.04 0  0.96 0.04 0  0.99 0.04 0  1.02 0.04 0  1.05 0.04 0  1.08 0.04 0  1.11 0.04 0  1.14 0.04 0  1.17 0.04 0  1.2 0.04 0  1.23 0.04 0  1.26 0.04 0  1.29 0.04 0  1.32 0.04 0  1.35 0.04 0  1.38 0.04 0  1.41 0.04 0  1.44 0.04 0  1.47 0.04 0  1.5 0.04 0  0 0.06 0  0.03 0.06 0  0.06 0.06 0  0.09 0.06 0  0.12 0.06 0  0.15 0.06 0  0.18 0.06 0  0.21 0.06 0  0.24 0.06 0  0.27 0.06 0  0.3 0.06 0  0.33 0.06 0  0.36 0.06 0  0.39 0.06 0  0.42 0.06 0  0.45 0.06 0  0.48 0.06 0  0.51 0.06 0  0.54 0.06 0  0.57 0.06 0  0.6 0.06 0  0.63 0.06 0  0.66 0.06 0  0.6899999999999999 0.06 0  0.72 0.06 0  0.75 0.06 0  0.78 0.06 0  0.8100000000000001 0.06 0  0.84 0.06 0  0.87 0.06 0  0.9 0.06 0  0.93 0.06 0  0.96 0.06 0  0.99 0.06 0  1.02 0.06 0  1.05 0.06 0  1.08 0.06 0  1.11 0.06 0  1.14 0.06 0  1.17 0.06 0  1.2 0.06 0  1.23 0.06 0  1.26 0.06 0  1.29 0.06 0  1.32 0.06 0  1.35 0.06 0  1.38 0.06 0  1.41 0.06 0  1.44 0.06 0  1.47 0.06 0  1.5 0.06 0  0 0.08 0  0.03 0.08 0  0.06 0.08 0  0.09 0.08 0  0.12 0.08 0  0.15 0.08 0  0.18 0.08 0  0.21 0.08 0  0.24 0.08 0  0.27 0.08 0  0.3 0.08 0  0.33 0.08 0  0.36 0.08 0  0.39 0.08 0  0.42 0.08 0  0.45 0.08 0  0.48 0.08 0  0.51 0.08 0  0.54 0.08 0  0.57 0.08 0  0.6 0.08 0  0.63 0.08 0  0.66 0.08 0  0.6899999999999999 0.08 0  0.72 0.08 0  0.75 0.08 0  0.78 0.08 0  0.8100000000000001 0.08 0  0.84 0.08 0  0.87 0.08 0  0.9 0.08 0  0.93 0.08 0  0.96 0.08 0  0.99 0.08 0  1.02 0.08 0  1.05 0.08 0  1.08 0.08 0  1.11 0.08 0  1.14 0.08 0  1.17 0.08 0  1.2 0.08 0  1.23 0.08 0  1.26 0.08 0  1.29 0.08 0  1.32 0.08 0  1.35 0.08 0  1.38 0.08 0  1.41 0.08 0  1.44 0.08 0  1.47 0.08 0  1.5 0.08 0  0 0.1 0  0.03 0.1 0  0.06 0.1 0  0.09 0.1 0  0.12 0.1 0  0.15 0.1 0  0.18 0.1 0  0.21 0.1 0  0.24 0.1 0  0.27 0.1 0  0.3 0.1 0  0.33 0.1 0  0.36 0.1 0  0.39 0.1 0  0.42 0.1 0  0.45 0.1 0  0.48 0.1 0  0.51 0.1 0  0.54 0.1 0  0.57 0.1 0  0.6 0.1 0  0.63 0.1 0  0.66 0.1 0  0.6899999999999999 0.1 0  0.72 0.1 0  0.75 0.1 0  0.78 0.1 0  0.8100000000000001 0.1 0  0.84 0.1 0  0.87 0.1 0  0.9 0.1 0  0.93 0.1 0  0.96 0.1 0  0.99 0.1 0  1.02 0.1 0  1.05 0.1 0  1.08 0.1 0  1.11 0.1 0  1.14 0.1 0  1.17 0.1 0  1.2 0.1 0  1.23 0.1 0  1.26 0.1 0  1.29 0.1 0  1.32 0.1 0  1.35 0.1 0  1.38 0.1 0  1.41 0.1 0  1.44 0.1 0  1.47 0.1 0  1.5 0.1 0  0 0.12 0  0.03 0.12 0  0.06 0.12 0  0.09 0.12 0  0.12 0.12 0  0.15 0.12 0  0.18 0.12 0  0.21 0.12 0  0.24 0.12 0  0.27 0.12 0  0.3 0.12 0  0.33 0.12 0  0.36 0.12 0  0.39 0.12 0  0.42 0.12 0  0.45 0.12 0  0.48 0.12 0  0.51 0.12 0  0.54 0.12 0  0.57 0.12 0  0.6 0.12 0  0.63 0.12 0  0.66 0.12 0  0.6899999999999999 0.12 0  0.72 0.12 0  0.75 0.12 0  0.78 0.12 0  0.8100000000000001 0.12 0  0.84 0.12 0  0.87 0.12 0  0.9 0.12 0  0.93 0.12 0  0.96 0.12 0  0.99 0.12 0  1.02 0.12 0  1.05 0.12 0  1.08 0.12 0  1.11 0.12 0  1.14 0.12 0  1.17 0.12 0  1.2 0.12 0  1.23 0.12 0  1.26 0.12 0  1.29 0.12 0  1.32 0.12 0  1.35 0.12 0  1.38 0.12 0  1.41 0.12 0  1.44 0.12 0  1.47 0.12 0  1.5 0.12 0  0 0.14 0  0.03 0.14 0  0.06 0.14 0  0.09 0.14 0  0.12 0.14 0  0.15 0.14 0  0.18 0.14 0  0.21 0.14 0  0.24 0.14 0  0.27 0.14 0  0.3 0.14 0  0.33 0.14 0  0.36 0.14 0  0.39 0.14 0  0.42 0.14 0  0.45 0.14 0  0.48 0.14 0  0.51 0.14 0  0.54 0.14 0  0.57 0.14 0  0.6 0.14 0  0.63 0.14 0  0.66 0.14 0  0.6899999999999999 0.14 0  0.72 0.14 0  0.75 0.14 0  0.78 0.14 0  0.8100000000000001 0.14 0  0.84 0.14 0  0.87 0.14 0  0.9 0.14 0  0.93 0.14 0  0.96 0.14 0  0.99 0.14 0  1.02 0.14 0  1.05 0.14 0  1.08 0.14 0  1.11 0.14 0  1.14 0.14 0  1.17 0.14 0  1.2 0.14 0  1.23 0.14 0  1.26 0.14 0  1.29 0.14 0  1.32 0.14 0  1.35 0.14 0  1.38 0.14 0  1.41 0.14 0  1.44 0.14 0  1.47 0.14 0  1.5 0.14 0  0 0.16 0  0.03 0.16 0  0.06 0.16 0  0.09 0.16 0  0.12 0.16 0  0.15 0.16 0  0.18 0.16 0  0.21 0.16 0  0.24 0.16 0  0.27 0.16 0  0.3 0.16 0  0.33 0.16 0  0.36 0.16 0  0.39 0.16 0  0.42 0.16 0  0.45 0.16 0  0.48 0.16 0  0.51 0.16 0  0.54 0.16 0  0.57 0.16 0  0.6 0.16 0  0.63 0.16 0  0.66 0.16 0  0.6899999999999999 0.16 0  0.72 0.16 0  0.75 0.16 0  0.78 0.16 0  0.8100000000000001 0.16 0  0.84 0.16 0  0.87 0.16 0  0.9 0.16 0  0.93 0.16 0  0.96 0.16 0  0.99 0.16 0  1.02 0.16 0  1.05 0.16 0  1.08 0.16 0  1.11 0.16 0  1.14 0.16 0  1.17 0.16 0  1.2 0.16 0  1.23 0.16 0  1.26 0.16 0  1.29 0.16 0  1.32 0.16 0  1.35 0.16 0  1.38 0.16 0  1.41 0.16 0  1.44 0.16 0  1.47 0.16 0  1.5 0.16 0  0 0.18 0  0.03 0.18 0  0.06 0.18 0  0.09 0.18 0  0.12 0.18 0  0.15 0.18 0  0.18 0.18 0  0.21 0.18 0  0.24 0.18 0  0.27 0.18 0  0.3 0.18 0  0.33 0.18 0  0.36 0.18 0  0.39 0.18 0  0.42 0.18 0  0.45 0.18 0  0.48 0.18 0  0.51 0.18 0  0.54 0.18 0  0.57 0.18 0  0.6 0.18 0  0.63 0.18 0  0.66 0.18 0  0.6899999999999999 0.18 0  0.72 0.18 0  0.75 0.18 0  0.78 0.18 0  0.8100000000000001 0.18 0  0.84 0.18 0  0.87 0.18 0  0.9 0.18 0  0.93 0.18 0  0.96 0.18 0  0.99 0.18 0  1.02 0.18 0  1.05 0.18 0  1.08 0.18 0  1.11 0.18 0  1.14 0.18 0  1.17 0.18 0  1.2 0.18 0  1.23 0.18 0  1.26 0.18 0  1.29 0.18 0  1.32 0.18 0  1.35 0.18 0  1.38 0.18 0  1.41 0.18 0  1.44 0.18 0  1.47 0.18 0  1.5 0.18 0  0 0.2 0  0.03 0.2 0  0.06 0.2 0  0.09 0.2 0  0.12 0.2 0  0.15 0.2 0  0.18 0.2 0  0.21 0.2 0  0.24 0.2 0  0.27 0.2 0  0.3 0.2 0  0.33 0.2 0  0.36 0.2 0  0.39 0.2 0  0.42 0.2 0  0.45 0.2 0  0.48 0.2 0  0.51 0.2 0  0.54 0.2 0  0.57 0.2 0  0.6 0.2 0  0.63 0.2 0  0.66 0.2 0  0.6899999999999999 0.2 0  0.72 0.2 0  0.75 0.2 0  0.78 0.2 0  0.8100000000000001 0.2 0  0.84 0.2 0  0.87 0.2 0  0.9 0.2 0  0.93 0.2 0  0.96 0.2 0  0.99 0.2 0  1.02 0.2 0  1.05 0.2 0  1.08 0.2 0  1.11 0.2 0  1.14 0.2 0  1.17 0.2 0  1.2 0.2 0  1.23 0.2 0  1.26 0.2 0  1.29 0.2 0  1.32 0.2 0  1.35 0.2 0  1.38 0.2 0  1.41 0.2 0  1.44 0.2 0  1.47 0.2 0  1.5 0.2 0  0 0.22 0  0.03 0.22 0  0.06 0.22 0  0.09 0.22 0  0.12 0.22 0  0.15 0.22 0  0.18 0.22 0  0.21 0.22 0  0.24 0.22 0  0.27 0.22 0  0.3 0.22 0  0.33 0.22 0  0.36 0.22 0  0.39 0.22 0  0.42 0.22 0  0.45 0.22 0  0.48 0.22 0  0.51 0.22 0  0.54 0.22 0  0.57 0.22 0  0.6 0.22 0  0.63 0.22 0  0.66 0.22 0  0.6899999999999999 0.22 0  0.72 0.22 0  0.75 0.22 0  0.78 0.22 0  0.8100000000000001 0.22 0  0.84 0.22 0  0.87 0.22 0  0.9 0.22 0  0.93 0.22 0  0.96 0.22 0  0.99 0.22 0  1.02 0.22 0  1.05 0.22 0  1.08 0.22 0  1.11 0.22 0  1.14 0.22 0  1.17 0.22 0  1.2 0.22 0  1.23 0.22 0  1.26 0.22 0  1.29 0.22 0  1.32 0.22 0  1.35 0.22 0  1.38 0.22 0  1.41 0.22 0  1.44 0.22 0  1.47 0.22 0  1.5 0.22 0  0 0.24 0  0.03 0.24 0  0.06 0.24 0  0.09 0.24 0  0.12 0.24 0  0.15 0.24 0  0.18 0.24 0  0.21 0.24 0  0.24 0.24 0  0.27 0.24 0  0.3 0.24 0  0.33 0.24 0  0.36 0.24 0  0.39 0.24 0  0.42 0.24 0  0.45 0.24 0  0.48 0.24 0  0.51 0.24 0  0.54 0.24 0  0.57 0.24 0  0.6 0.24 0  0.63 0.24 0  0.66 0.24 0  0.6899999999999999 0.24 0  0.72 0.24 0  0.75 0.24 0  0.78 0.24 0  0.8100000000000001 0.24 0  0.84 0.24 0  0.87 0.24 0  0.9 0.24 0  0.93 0.24 0  0.96 0.24 0  0.99 0.24 0  1.02 0.24 0  1.05 0.24 0  1.08 0.24 0  1.11 0.24 0  1.14 0.24 0  1.17 0.24 0  1.2 0.24 0  1.23 0.24 0  1.26 0.24 0  1.29 0.24 0  1.32 0.24 0  1.35 0.24 0  1.38 0.24 0  1.41 0.24 0  1.44 0.24 0  1.47 0.24 0  1.5 0.24 0  0 0.26 0  0.03 0.26 0  0.06 0.26 0  0.09 0.26 0  0.12 0.26 0  0.15 0.26 0  0.18 0.26 0  0.21 0.26 0  0.24 0.26 0  0.27 0.26 0  0.3 0.26 0  0.33 0.26 0  0.36 0.26 0  0.39 0.26 0  0.42 0.26 0  0.45 0.26 0  0.48 0.26 0  0.51 0.26 0  0.54 0.26 0  0.57 0.26 0  0.6 0.26 0  0.63 0.26 0  0.66 0.26 0  0.6899999999999999 0.26 0  0.72 0.26 0  0.75 0.26 0  0.78 0.26 0  0.8100000000000001 0.26 0  0.84 0.26 0  0.87 0.26 0  0.9 0.26 0  0.93 0.26 0  0.96 0.26 0  0.99 0.26 0  1.02 0.26 0  1.05 0.26 0  1.08 0.26 0  1.11 0.26 0  1.14 0.26 0  1.17 0.26 0  1.2 0.26 0  1.23 0.26 0  1.26 0.26 0  1.29 0.26 0  1.32 0.26 0  1.35 0.26 0  1.38 0.26 0  1.41 0.26 0  1.44 0.26 0  1.47 0.26 0  1.5 0.26 0  0 0.28 0  0.03 0.28 0  0.06 0.28 0  0.09 0.28 0  0.12 0.28 0  0.15 0.28 0  0.18 0.28 0  0.21 0.28 0  0.24 0.28 0  0.27 0.28 0  0.3 0.28 0  0.33 0.28 0  0.36 0.28 0  0.39 0.28 0  0.42 0.28 0  0.45 0.28 0  0.48 0.28 0  0.51 0.28 0  0.54 0.28 0  0.57 0.28 0  0.6 0.28 0  0.63 0.28 0  0.66 0.28 0  0.6899999999999999 0.28 0  0.72 0.28 0  0.75 0.28 0  0.78 0.28 0  0.8100000000000001 0.28 0  0.84 0.28 0  0.87 0.28 0  0.9 0.28 0  0.93 0.28 0  0.96 0.28 0  0.99 0.28 0  1.02 0.28
[...]
<PointData  Scalars="sensitivity"> 
<DataArray  type="Float64"  Name="sensitivity"  format="ascii">-5.6772321000518924e-07  -1.2402050903382637e-05  -4.8756168742624947e-05  -1.1526159331703003e-04  -2.0518100499798843e-04  -3.0148542652281825e-04  -3.8929831368047087e-04  -4.6344806978506882e-04  -5.2615857449043351e-04  -5.8048697979189449e-04  -6.2620728296185917e-04  -6.6052966327789591e-04  -6.8156596924233100e-04  -6.9097528589637182e-04  -6.9352156266587776e-04  -6.9390351374343153e-04  -6.9394238466220315e-04  -6.9301928036403181e-04  -6.9071395271522195e-04  -6.8804247604287519e-04  -6.8620224629071884e-04  -6.8522896142968117e-04  -6.8443531855301920e-04  -6.8366877976256681e-04  -6.8359122639143663e-04  -6.8476720375955466e-04  -6.8677886780899077e-04  -6.8838483004265971e-04  -6.8852419160447299e-04  -6.8707036878549739e-04  -6.8467145628239271e-04  -6.8225764746373055e-04  -6.8094730642722615e-04  -6.8192119467550558e-04  -6.8553774800795577e-04  -6.9010720875816139e-04  -6.9139507390881963e-04  -6.8355859685350500e-04  -6.6176422089932174e-04  -6.2533747794772264e-04  -5.7821584469353352e-04  -5.2508495108069986e-04  -4.6669906187134393e-04  -3.9937646152768966e-04  -3.1947282102401798e-04  -2.2926690478292100e-04  -1.3991054082646169e-04  -6.7406465296886386e-05  -2.2590644881082757e-05  -2.7364845296469164e-06  -5.8016587267127623e-09  -7.2284562383027467e-06  -1.0134721118529385e-04  -3.8970610596213520e-04  -9.4775332348280615e-04  -1.7332501635192155e-03  -2.5922964588528659e-03  -3.3763766046467289e-03  -4.0267004222540332e-03  -4.5639266290893703e-03  -5.0255174162646349e-03  -5.4184874731214366e-03  -5.7190169652797567e-03  -5.9042090806872881e-03  -5.9817539182071590e-03  -5.9924233444240884e-03  -5.9831442150948431e-03  -5.9761322111064078e-03  -5.9663912388925747e-03  -5.9461363072186310e-03  -5.9217803019897186e-03  -5.9050483720172898e-03  -5.8977288505906575e-03  -5.8927129551293728e-03  -5.8864582928089453e-03  -5.8842911822798430e-03  -5.8929134401786440e-03  -5.9106054084521447e-03  -5.9265401991888652e-03  -5.9297141270348349e-03  -5.9175566439800611e-03  -5.8956810022702290e-03  -5.8726561957106373e-03  -5.8586001540134724e-03  -5.8654671451730594e-03  -5.9004323397294379e-03  -5.9539402513747296e-03  -5.9926417260141428e-03  -5.9645256947177105e-03  -5.8200929004334394e-03  -5.5437836027410672e-03  -5.1667411691510342e-03  -4.7364267066394242e-03  -4.2679211888656627e-03  -3.7278177549017041e-03  -3.0691241903428382e-03  -2.2902086535166837e-03  -1.4737324346685140e-03  -7.6780450193848283e-04  -2.9801875568172888e-04  -6.5910322418586537e-05  -1.9396481409263141e-06  -2.2821480410335015e-05  -2.2208001783206838e-04  -6.8839536326131248e-04  -1.5803489828930899e-03  -2.8260458652533851e-03  -4.1483480229835695e-03  -5.2987991953226494e-03  -6.1968675162532910e-03  -6.9035109692218936e-03  -7.5041246136448546e-03  -8.0216210877681188e-03  -8.4155027553321163e-03  -8.6398115227053433e-03  -8.6995781918565145e-03  -8.6616060721493825e-03  -8.6085198802829683e-03  -8.5775473536166442e-03  -8.5522676862230199e-03  -8.5116326185935721e-03  -8.4659066273113561e-03  -8.4380002069894631e-03  -8.4304405465077809e-03  -8.4267205202553288e-03  -8.4173453157953618e-03  -8.4117971718207993e-03  -8.4243847479284518e-03  -8.4544328428072264e-03  -8.4832656961551112e-03  -8.4905387645714744e-03  -8.4716179247019321e-03  -8.4371511370286596e-03  -8.4012487966931299e-03  -8.3791055071729854e-03  -8.3916991812956476e-03  -8.4568200939952858e-03  -8.5671892136364534e-03  -8.6763061419602976e-03  -8.7031713280525651e-03  -8.5620743241181674e-03  -8.2180192909961577e-03  -7.7207348539809666e-03  -7.1576726467017203e-03  -6.5613651822647038e-03  -5.8683106290714987e-03  -4.9739405255440766e-03  -3.8402249511370304e-03  -2.5716340072676979e-03  -1.4116369423500506e-03  -6.0564521307038971e-04  -1.8549653768992492e-04  -1.2264380016961666e-05  -4.3039582045195650e-05  -4.0222609490848693e-04  -1.0927824720725293e-03  -2.3187635402622721e-03  -3.9154869234769695e-03  -5.4655405970341041e-03  -6.6697911702729741e-03  -7.4908677214542080e-03  -8.0749021861808642e-03  -8.5701862693337016e-03  -9.0143143485522520e-03  -9.3483849293980476e-03  -9.5022938140316079e-03  -9.4722886698092243e-03  -9.3440187585370118e-03  -9.2309911319967616e-03  -9.1748335716858673e-03  -9.1320417821144553e-03  -9.0617734838149989e-03  -8.9847564097964797e-03  -8.9417795776621459e-03  -8.9339400424495070e-03  -8.9297689358872456e-03  -8.9123966644096345e-03  -8.8979952498036696e-03  -8.9110653880422625e-03  -8.9529486044789188e-03  -8.9968591891283704e-03  -9.0129469183870201e-03  -8.9959776930231862e-03  -8.9630565236611566e-03  -8.9309781619592576e-03  -8.9137545532291234e-03  -8.9380619317045180e-03  -9.0340944825316009e-03  -9.2018942979732957e-03  -9.3922717374409197e-03  -9.5122528223588604e-03  -9.4538965047647385e-03  -9.1654858842880414e-03  -8.7130572312070515e-03  -8.2229865107001730e-03  -7.7433438146367250e-03  -7.1717538174555029e-03  -6.3266397763094093e-03  -5.0986269868001947e-03  -3.5685588561600538e-03  -2.0555193319230281e-03  -9.4041606600038237e-04  -3.3594085108097670e-04  -2.9977997984636155e-05  -5.5110110307503663e-05  -6.7433369206385636e-04  -2.0080878107471543e-03  -4.1243987291807198e-03  -6.4127171139084010e-03  -8.2127342506572547e-03  -9.2907907195093811e-03  -9.7690365750008473e-03  -9.9609809270463385e-03  -1.0120034597163869e-02  -1.0308089392864718e-02  -1.0444399224462126e-02  -1.0426807556851363e-02  -1.0228077062990221e-02  -9.9450626180009449e-03  -9.7309479174323647e-03  -9.6302371201168590e-03  -9.5514032323204632e-03  -9.4206337543190806e-03  -9.2807421104584772e-03  -9.2057461404026104e-03  -9.1928965692742275e-03  -9.1838855030928254e-03  -9.1499301743787499e-03  -9.1185942621336852e-03  -9.1303577202937365e-03  -9.1899803488641098e-03  -9.2588115629747732e-03  -9.2922739922613913e-03  -9.2846869649747098e-03  -9.2649681921658216e-03  -9.2531128935555446e-03  -9.2555411403913383e-03  -9.3035667867543172e-03  -9.4477716290025365e-03  -9.7021901224241501e-03  -1.0018858762564923e-02  -1.0300050307673310e-02  -1.0416569720560877e-02  -1.0289476591953223e-02  -1.0004655755976474e-02  -9.7573219849231303e-03  -9.6404184904391454e-03  -9.5025491970374305e-03  -9.0185077453748107e-03  -7.8775889565751780e-03  -5.9774304355312436e-03  -3.6644161230125032e-03  -1.6732047275343877e-03  -5.3372925197358201e-04  -4.7118819625005411e-05  -5.2953454696246332e-05  -1.3159338515818116e-03  -4.9945898261065961e-03  -9.6060362718118596e-03  -1.2754393028385521e-02  -1.3955401041761670e-02  -1.3941816321620290e-02  -1.3439310140814519e-02  -1.2928805710391547e-02  -1.2569536762888599e-02  -1.2285379409509706e-02  -1.1977706107253024e-02  -1.1593355883488319e-02  -1.1103530143328374e-02  -1.0594468805666127e-02  -1.0256075645785788e-02  -1.0117231497979632e-02  -9.9994754236233489e-03  -9.7764456814898835e-03  -9.5307337477595032e-03  -9.3949904124854874e-03  -9.3627858541457491e-03  -9.3347923732351352e-03  -9.2663117174713421e-03  -9.2034868190268085e-03  -9.2093667048503240e-03  -9.2933716876893394e-03  -9.4000639823701524e-03  -9.4613383583587955e-03  -9.4684965288800091e-03  -9.4703819207613889e-03  -9.4948566764646494e-03  -9.5320352253085317e-03  -9.6120679457642084e-03  -9.8162584244373702e-03  -1.0188137893442899e-02  -1.0694138530137731e-02  -1.1244370272541229e-02  -1.1681307967641528e-02  -1.1860177176263529e-02  -1.1871906865798457e-02  -1.2035226992848938e-02  -1.2582345721462301e-02  -1.3386015042366228e-02  -1.3991174847284314e-02  -1.3884426551753976e-02  -1.2421954103094575e-02  -8.7719766192267037e-03  -3.9400710784731506e-03  -8.6579150355304559e-04  -5.1594203558228610e-05  -1.3996215535039253e-04  -4.5296358392597040e-03  -1.5315969712259998e-02  -2.3446936929293262e-02  -2.5721836446365266e-02  -2.4206329466937373e-02  -2.1348596059693872e-02  -1.8483343775675572e-02  -1.6526859853008394e-02  -1.5599092101093528e-02  -1.5063933630648252e-02  -1.4277815324438739e-02  -1.3220610337730769e-02  -1.2128297035411871e-02  -1.1194478515911157e-02  -1.0690669250919797e-02  -1.0567367204175740e-02  -1.0450994231377840e-02  -1.0151587043932365e-02  -9.8109843638795047e-03  -9.6242619939468105e-03  -9.5759462466042042e-03  -9.5163889942858522e-03  -9.3887958366165626e-03  -9.2714976017166644e-03  -9.2591010878574371e-03  -9.3685155142818159e-03  -9.5242982956401552e-03  -9.6231297365316389e-03  -9.6449525466772070e-03  -9.6642350597697258e-03  -9.7226203310224000e-03  -9.7936958987008011e-03  -9.9171069811856572e-03  -1.0220847608515132e-02  -1.0783210319713866e-02  -1.1595353313576303e-02  -1.2583967918066548e-02  -1.3525251899534331e-02  -1.4157883339280914e-02  -1.4590669021336301e-02  -1.5303408773462250e-02  -1.6695582767273214e-02  -1.8725834063412775e-02  -2.0931654443368020e-02  -2.3038631232214255e-02  -2.4700520132693367e-02  -2.3670923038334252e-02  -1.5538772454354541e-02  -3.1578291517256468e-03  -4.4346234240650699e-05  -1.5112831970003340e-03  -2.0093648546435326e-02  -3.4730721698901915e-02  -3.8078987728869078e-02  -3.7820600938713214e-02  -3.5002925983740003e-02  -3.1241565081894285e-02  -2.6741161680541237e-02  -2.2474949341118509e-02  -1.9638933559090490e-02  -1.8357373725012605e-02  -1.7579945666822736e-02  -1.6183498406119632e-02  -1.4209896498902471e-02  -1.2321390999546607e-02  -1.1252521244378824e-02  -1.1034896846047864e-02  -1.0880794238011761e-02  -1.0369215433506475e-02  -9.8968096782467013e-03  -9.7429721667241266e-03  -9.7530061678584457e-03  -9.6895539851596674e-03  -9.5038553281026651e-03  -9.3250371280650616e-03  -9.2854637130732019e-03  -9.4136648634926476e-03  -9.6185982252383322e-03  -9.7593763910406306e-03  -9.8017905138521495e-03  -9.8592431314322437e-03  -9.9879825916715029e-03  -1.0112185023474496e-02  -1.0307879022947839e-02  -1.0844882405816795e-02  -1.1823443277120324e-02  -1.3124542300990086e-02  -1.4634246245398006e-02  -1.6119232311820494e-02  -1.7278626690904068e-02  -1.8374015134386964e-02  -1.9962070497954620e-02  -2.2272778874502304e-02  -2.5273785947790287e-02  -2.8486981803545072e-02  -3.1772618071471866e-02  -3.5714367148382963e-02  -4.0782739851351849e-02  -4.4844839912759338e-02  -1.9141364692285487e-02  -1.5444885683279345e-04  -7.2600422530076612e-03  -4.1150048714536917e-02  -4.4834084581554988e-02  -4.0100294451805490e-02  -3.8457931220316592e-02  -3.6914353631341608e-02  -3.4725267938413996e-02  -3.2255335391390132e-02  -2.9075628250128986e-02  -2.5461610174323152e-02  -2.2469695372671974e-02  -2.0801100623307065e-02  -1.9715208119047471e-02  -1.7825293636060946e-02  -1.5033115893590670e-02  -1.2978967167436873e-02  -1.1961008089689798e-02  -1.1605341858665600e-02  -1.0971401328236685e-02  -9.9860290957726455e-03  -9.7113280839888488e-03  -9.8068583135732610e-03  -9.7561728311114336e-03  -9.5158592003361693e-03  -9.2946068052651362e-03  -9.2486159022788488e-03  -9.4099450029777876e-03  -9.6758340459344172e-03  -9.8653949197431961e-03  -9.9342344784994780e-03  -1.0081316199913792e-02  -1.0447914883158242e-02  -1.0852637506665678e-02  -1.1225971809828230e-02  -1.2011877672207774e-02  -1.3539264686299443e-02  -1.5452554714105390e-02  -1.7304554229973106e-02  -1.9009084286196735e-02  -2.0567571166844455e-02  -2.2311623308237747e-02  -2.4567685823652513e-02  -2.7063914620909822e-02  -2.9650391142853994e-02  -3.2334117077027602e-02  -3.4944461452342472e-02  -3.7484657141643903e-02  -4.0410173175489783e-02  -4.6574816203588963e-02  -5.0166877519273304e-02  -6.0868027305778349e-03  -1.5876546628691653e-02  -3.5820855918955251e-02  -3.5967652386252456e-02  -3.4421522182071534e-02  -3.3521598609408627e-02  -3.3198467428419934e-02  -3.3122346017573565e-02  -3.2727055386400944e-02  -3.1697615608742673e-02  -2.9869953017290552e-02  -2.7172857795519704e-02  -2.4377690671624853e-02  -2.2193333228411743e-02  -2.0327288875376864e-02  -1.7972093822453031e-02  -1.5587861702109060e-02  -1.4497515647276117e-02  -1.3443012903511785e-02  -1.2308644529110608e-02  -1.0898104914513798e-02  -1.0204793134332530e-02  -1.0215319496591255e-02  -1.0114666825413640e-02  -9.7409578091025243e-03  -9.4299505969397159e-03  -9.3781408043682769e-03  -9.6025496306665434e-03  -9.9975004656253797e-03  -1.0325404651947843e-02  -1.0461465207854511e-02  -1.0660027677267822e-02  -1.1292526751834880e-02  -1.2276415871428076e-02  -1.3143453720330758e-02  -1.4054145221966258e-02  -1.5622827993515680e-02  -1.7814181753420078e-02  -2.0059614079357826e-02  -2.2283055222987232e-02  -2.4444989563528346e-02  -2.6394638301020887e-02  -2.8216643820817396e-02  -2.9877291642117432e-02  -3.1326705887657347e-02  -3.2503101350150179e-02  -3.3320762271429438e-02  -3.3937834975882437e-02  -3.3987172264635768e-02  -3.3398068777872214e-02  -3.4584749725672617e-02  -1.8446704871391342e-02  -2.1605353883886194e-02  -3.7557946668124530e-02  -3.5597100709674867e-02  -3.4696430664701204e-02  -3.3968021704753312e-02  -3.2586529283310142e-02  -3.1685052247692649e-02  -3.1808742580291947e-02  -3.2181876896713826e-02  -3.2000551480891891e-02  -3.0871396943552922e-02  -2.8688583695325658e-02  -2.5744497601080236e-02  -2.2579574399178039e-02  -1.9837057646062195e-02  -1.7957759863000858e-02  -1.7455426895381473e-02  -1.6782841445571975e-02  -1.4667162609260870e-02  -1.2556620127939786e-02  -1.1561395842094582e-02  -1.1359674640031969e-02  -1.1095209739938092e-02  -1.0511160901104353e-02  -1.0025320855626818e-02  -9.9136598244430833e-03  -1.0186510642849827e-02  -1.0769748634746522e-02  -1.1421656641432571e-02  -1.1838154744057887e-02  -1.2111257800836958e-02  -1.2701879811064711e-02  -1.3846143256159489e-02  -1.5191238694273163e-02  -1.6427562993037166e-02  -1.8002408013091400e-02  -2.0325460984445438e-02  -2.3213869530135833e-02  -2.6194435668671974e-02  -2.8646862955092240e-02  -3.0159053279976249e-02  -3.0881651210500467e-02  -3.1245740252221117e-02  -3.1553014525660783e-02  -3.2047699164187871e-02  -3.2678289106769336e-02  -3.2960447224587713e-02  -3.3286973069249791e-02  -3.4516204463377526e-02  -3.7401206717567158e-02  -2.0635466887058206e-02  -3.0800176608568458e-02  -5.0741920768565513e-02  -4.1834280302384015e-02  -3.8453191579439695e-02  -3.7624862155198724e-02  -3.6152796005535018e-02  -3.3690410452144222e-02  -3.2042862273747884e-02  -3.1905134375752854e-02  -3.2364744622290401e-02  -3.2406448905203028e-02  -3.1602245233119407e-02  -2.9696987537107741e-02  -2.6578047946696028e-02  -2.3009814124243497e-02  -2.0320352655719999e-02  -1.9277025581744447e-02  -1.9091060973279089e-02  -1.7270447413513117e-02  -1.4843796865320167e-02  -1.3843775653976400e-02  -1.3569082842615680e-02  -1.3033997512662621e-02  -1.2208140289673926e-02  -1.1527727310101236e-02  -1.1299096812115788e-02  -1.1537410550275523e-02  -1.2199106511560011e-02  -1.3145816873599071e-02  -1.4019154618416308e-02  -1.4577795447969640e-02  -1.5058972338339296e-02  -1.5875856086422443e-02  -1.7131740019072288e-02  -1.8713767432108241e-02  -2.0797765915782904e-02  -2.3599388545836673e-02  -2.6744437243522920e-02  -2.9461277764280733e-02  -3.1178241681450201e-02  -3.1799620498942027e-02  -3.1698510778660621e-02  -3.1529545219240659e-02  -3.2012692788556757e-02  -3.3330072500565452e-02  -3.4805384890491689e-02  -3.5954834302834152e-02  -3.7721663984967166e-02  -4.2740302410142227e-02  -5.1964524157445957e-02  -2.8190337742488480e-02  -3.6820060933938491e-02  -6.3127273343423981e-02  -4.9747577779566628e-02  -4.1834239404532035e-02  -3.9429676435938213e-02  -3.9048447018269719e-02  -3.7312646983783199e-02  -3.4410686085318345e-02  -3.2495230969869254e-02  -3.2156292651604544e-02  -3.2419756439569666e-02  -3.2361840731421641e-02  -3.1603930062136180e-02  -2.9900558857344894e-02  -2.7241143902235625e-02  -2.4346801110801126e-02  -2.2177654914481208e-02  -2.0770809279486623e-02  -1.8951777575206299e-02  -1.6858879282684688e-02  -1.6064400570220443e-02  -1.6094659683324207e-02  -1.5653949429924340e-02  -1.4834810206888279e-02  -1.4161728564273921e-02  -1.3884093109563707e-02  -1.4019233728573104e-02  -1.4546305536811832e-02  -1.5416305917809858e-02  -1.6402847201323761e-02  -1.7209636042378729e-02  -1.7833378997853457e-02  -1.8634957280701001e-02  -1.9993822402273185e-02  -2.1962441107489471e-02  -2.4355585131302173e-02  -2.6963010802553419e-02  -2.9425733995314368e-02  -3.1198540191071496e-02  -3.1971160507203979e-02  -3.1935723795265998e-02  -3.1703638329878679e-02  -3.2109561831460173e-02  -3.3618046256778160e-02  -3.5700692930993497e-02  -3.7335185868371666e-02  -3.8746976995164099e-02  -4.2160450339663341e-02  -5.0347369950820550e-02  -6.3413363362602157e-02  -3.5603485946916591e-02  -3.5752815245066169e-02  -6.4602594609528760e-02  -5.2168907389736070e-02  -4.3663489311498944e-02  -3.9901743777218536e-02  -3.9308781488074922e-02  -3.9106497678379121e-02  -3.7249438378168381e-02  -3.4479786723874632e-02  -3.2672372429247594e-02  -3.2194175270664524e-02  -3.2250862716672872e-02  -3.2094697148842229e-02  -3.1389427005675111e-02  -3.0095548308604836e-02  -2.8378811894607826e-02  -2.6547685609143574e-02  -2.4732989097228701e-02  -2.2663782073165797e-02  -2.0446365697087590e-02  -1.8945127836953065e-02  -1.8321975644786409e-02  -1.7782983878076791e-02  -1.7084811407429915e-02  -1.6597470021781510e-02  -1.6477265114535584e-02  -1.6676418316655221e-02  -1.7173475269117607e-02  -1.7981313235988339e-02  -1.9040608083984042e-02  -2.0215738894224299e-02  -2.1414717262528724e-02  -2.2674286838612952e-02  -2.4118876218306554e-02  -2.5820338222674044e-02  -2.7695173661022327e-02  -2.9522615843918208e-02  -3.0993303421607353e-02  -3.1827119972375251e-02  -3.2014831138839073e-02  -3.1956237071329614e-02  -3.2320389474592683e-02  -3.3621265940212759e-02  -3.5637348770265406e-02  -3.7427833393420928e-02  -3.8511952664933083e-02  -3.9813400856394843e-02  -4.3512659215493292e-02  -5.1625578051710093e-02  -6.4004691460099628e-02  -3.6874078455468362e-02  -2.8355704885139766e-02  -5.4289092588609741e-02  -4.7008724327011475e-02  -4.1947206922857548e-02  -3.9472306927780726e-02  -3.8819186017467880e-02  -3.8952672597992441e-02  -3.8565372167021127e-02  -3.6797304997534294e-02  -3.4435901153610490e-02  -3.2770090090310060e-02  -3.2089375635821149e-02  -3.1921299258694705e-02  -3.1741510187585635e-02  -3.1306265245857764e-02  -3.0634153744991496e-02  -2.9795268137284437e-02  -2.8735909479703444e-02  -2.7339956189596951e-02  -2.5731993686715367e-02  -2.4361071223392476e-02  -2.3463220309241809e-02  -2.2747881892071355e-02  -2.2001332912620745e-02  -2.1440368806486705e-02  -2.1278149007409129e-02  -2.1506813167371224e-02  -2.2051782811227254e-02  -2.2859087852438870e-02  -2.3855894140584304e-02  -2.4934084699169294e-02  -2.5999814145672012e-02  -2.7017279352482857e-02  -2.8003077196608640e-02  -2.8992028173131113e-02  -2.9979425111475375e-02  -3.0858798710574498e-02  -3.1471288125108250e-02  -3.1799905600842844e-02  -3.2075639181768895e-02  -3.2647045672251525e-02  -3.3762925898668611e-02  -3.5344868958829274e-02  -3.6899125828706060e-02  -3.7918815762260569e-02  -3.8466143573653862e-02  -3.9229232117543082e-02  -4.1247785993582843e-02  -4.5683396216620820e-02  -5.3122233062231732e-02  -3.1039235363676761e-02  -2.0140444390218497e-02  -3.8925190569012225e-02  -3.8040262853781343e-02  -3.7969079734280924e-02  -3.7931392259021833e-02  -3.8023655998904296e-02  -3.8261762896323590e-02  -3.8469947292434727e-02  -3.8030998020623423e-02  -3.6550968045692807e-02  -3.4548605675999787e-02  -3.2871656828026757e-02  -3.1899196447606408e-02  -3.1490081521836744e-02  -3.1342165591375988e-02  -3.1239513976488872e-02  -3.1069774599231211e-02  -3.0741649602100598e-02  -3.0190763729368957e-02  -2.9504082434775456e-02  -2.8911630310561178e-02  -2.8543222433205128e-02  -2.8274311994792394e-02  -2.7941615366462370e-02  -2.7600191445385173e-02  -2.7412407801388403e-02  -2.7446513675073947e-02  -2.7681412714397391e-02  -2.8076632429388262e-02  -2.8578827517229129e-02  -2.9110102583474396e-02  -