<?xml version="1.0"?>
<VTKFile type="UnstructuredGrid"  version="0.1"  >
<UnstructuredGrid>
<Piece  NumberOfPoints="2601" NumberOfCells="5000">
<Points>
<DataArray  type="Float64"  NumberOfComponents="3"  format="ascii">0 0 0  0.03 0 0  0.06 0 0  0.09 0 0  0.12 0 0  0.15 0 0  0.18 0 0  0.21 0 0  0.24 0 0  0.27 0 0  0.3 0 0  0.33 0 0  0.36 0 0  0.39 0 0  0.42 0 0  0.45 0 0  0.48 0 0  0.51 0 0  0.54 0 0  0.57 0 0  0.6 0 0  0.63 0 0  0.66 0 0  0.6899999999999999 0 0  0.72 0 0  0.75 0 0  0.78 0 0  0.8100000000000001 0 0  0.84 0 0  0.87 0 0  0.9 0 0  0.93 0 0  0.96 0 0  0.99 0 0  1.02 0 0  1.05 0 0  1.08 0 0  1.11 0 0  1.14 0 0  1.17 0 0  1.2 0 0  1.23 0 0  1.26 0 0  1.29 0 0  1.32 0 0  1.35 0 0  1.38 0 0  1.41 0 0  1.44 0 0  1.47 0 0  1.5 0 0  0 0.02 0  0.03 0.02 0  0.06 0.02 0  0.09 0.02 0  0.12 0.02 0  0.15 0.02 0  0.18 0.02 0  0.21 0.02 0  0.24 0.02 0  0.27 0.02 0  0.3 0.02 0  0.33 0.02 0  0.36 0.02 0  0.39 0.02 0  0.42 0.02 0  0.45 0.02 0  0.48 0.02 0  0.51 0.02 0  0.54 0.02 0  0.57 0.02 0  0.6 0.02 0  0.63 0.02 0  0.66 0.02 0  0.6899999999999999 0.02 0  0.72 0.02 0  0.75 0.02 0  0.78 0.02 0  0.8100000000000001 0.02 0  0.84 0.02 0  0.87 0.02 0  0.9 0.02 0  0.93 0.02 0  0.96 0.02 0  0.99 0.02 0  1.02 0.02 0  1.05 0.02 0  1.08 0.02 0  1.11 0.02 0  1.14 0.02 0  1.17 0.02 0  1.2 0.02 0  1.23 0.02 0  1.26 0.02 0  1.29 0.02 0  1.32 0.02 0  1.35 0.02 0  1.38 0.02 0  1.41 0.02 0  1.44 0.02 0  1.47 0.02 0  1.5 0.02 0  0 0.04 0  0.03 0.04 0  0.06 0.04 0  0.09 0.04 0  0.12 0.04 0  0.15 0.04 0  0.18 0.04 0  0.21 0.04 0  0.24 0.04 0  0.27 0.04 0  0.3 0.04 0  0.33 0.04 0  0.36 0.04 0  0.39 0.04 0  0.42 0.04 0  0.45 0.04 0  0.48 0.04 0  0.51 0.04 0  0.54 0.04 0  0.57 0.04 0  0.6 0.04 0  0.63 0.04 0  0.66 0.04 0  0.6899999999999999 0.04 0  0.72 0.04 0  0.75 0.04 0  0.78 0.04 0  0.8100000000000001 0.04 0  0.84 0.04 0  0.87 0.04 0  0.9 0.04 0  0.93 0.04 0  0.96 0.04 0  0.99 0.04 0  1.02 0.04 0  1.05 0.04 0  1.08 0.04 0  1.11 0.04 0  1.14 0.04 0  1.17 0.04 0  1.2 0.04 0  1.23 0.04 0  1.26 0.04 0  1.29 0.04 0  1.32 0.04 0  1.35 0.04 0  1.38 0.04 0  1.41 0.04 0  1.44 0.04 0  1.47 0.04 0  1.5 0.04 0  0 0.06 0  0.03 0.06 0  0.06 0.06 0  0.09 0.06 0  0.12 0.06 0  0.15 0.06 0  0.18 0.06 0  0.21 0.06 0  0.24 0.06 0  0.27 0.06 0  0.3 0.06 0  0.33 0.06 0  0.36 0.06 0  0.39 0.06 0  0.42 0.06 0  0.45 0.06 0  0.48 0.06 0  0.51 0.06 0  0.54 0.06 0  0.57 0.06 0  0.6 0.06 0  0.63 0.06 0  0.66 0.06 0  0.6899999999999999 0.06 0  0.72 0.06 0  0.75 0.06 0  0.78 0.06 0  0.8100000000000001 0.06 0  0.84 0.06 0  0.87 0.06 0  0.9 0.06 0  0.93 0.06 0  0.96 0.06 0  0.99 0.06 0  1.02 0.06 0  1.05 0.06 0  1.08 0.06 0  1.11 0.06 0  1.14 0.06 0  1.17 0.06 0  1.2 0.06 0  1.23 0.06 0  1.26 0.06 0  1.29 0.06 0  1.32 0.06 0  1.35 0.06 0  1.38 0.06 0  1.41 0.06 0  1.44 0.06 0  1.47 0.06 0  1.5 0.06 0  0 0.08 0  0.03 0.08 0  0.06 0.08 0  0.09 0.08 0  0.12 0.08 0  0.15 0.08 0  0.18 0.08 0  0.21 0.08 0  0.24 0.08 0  0.27 0.08 0  0.3 0.08 0  0.33 0.08 0  0.36 0.08 0  0.39 0.08 0  0.42 0.08 0  0.45 0.08 0  0.48 0.08 0  0.51 0.08 0  0.54 0.08 0  0.57 0.08 0  0.6 0.08 0  0.63 0.08 0  0.66 0.08 0  0.6899999999999999 0.08 0  0.72 0.08 0  0.75 0.08 0  0.78 0.08 0  0.8100000000000001 0.08 0  0.84 0.08 0  0.87 0.08 0  0.9 0.08 0  0.93 0.08 0  0.96 0.08 0  0.99 0.08 0  1.02 0.08 0  1.05 0.08 0  1.08 0.08 0  1.11 0.08 0  1.14 0.08 0  1.17 0.08 0  1.2 0.08 0  1.23 0.08 0  1.26 0.08 0  1.29 0.08 0  1.32 0.08 0  1.35 0.08 0  1.38 0.08 0  1.41 0.08 0  1.44 0.08 0  1.47 0.08 0  1.5 0.08 0  0 0.1 0  0.03 0.1 0  0.06 0.1 0  0.09 0.1 0  0.12 0.1 0  0.15 0.1 0  0.18 0.1 0  0.21 0.1 0  0.24 0.1 0  0.27 0.1 0  0.3 0.1 0  0.33 0.1 0  0.36 0.1 0  0.39 0.1 0  0.42 0.1 0  0.45 0.1 0  0.48 0.1 0  0.51 0.1 0  0.54 0.1 0  0.57 0.1 0  0.6 0.1 0  0.63 0.1 0  0.66 0.1 0  0.6899999999999999 0.1 0  0.72 0.1 0  0.75 0.1 0  0.78 0.1 0  0.8100000000000001 0.1 0  0.84 0.1 0  0.87 0.1 0  0.9 0.1 0  0.93 0.1 0  0.96 0.1 0  0.99 0.1 0  1.02 0.1 0  1.05 0.1 0  1.08 0.1 0  1.11 0.1 0  1.14 0.1 0  1.17 0.1 0  1.2 0.1 0  1.23 0.1 0  1.26 0.1 0  1.29 0.1 0  1.32 0.1 0  1.35 0.1 0  1.38 0.1 0  1.41 0.1 0  1.44 0.1 0  1.47 0.1 0  1.5 0.1 0  0 0.12 0  0.03 0.12 0  0.06 0.12 0  0.09 0.12 0  0.12 0.12 0  0.15 0.12 0  0.18 0.12 0  0.21 0.12 0  0.24 0.12 0  0.27 0.12 0  0.3 0.12 0  0.33 0.12 0  0.36 0.12 0  0.39 0.12 0  0.42 0.12 0  0.45 0.12 0  0.48 0.12 0  0.51 0.12 0  0.54 0.12 0  0.57 0.12 0  0.6 0.12 0  0.63 0.12 0  0.66 0.12 0  0.6899999999999999 0.12 0  0.72 0.12 0  0.75 0.12 0  0.78 0.12 0  0.8100000000000001 0.12 0  0.84 0.12 0  0.87 0.12 0  0.9 0.12 0  0.93 0.12 0  0.96 0.12 0  0.99 0.12 0  1.02 0.12 0  1.05 0.12 0  1.08 0.12 0  1.11 0.12 0  1.14 0.12 0  1.17 0.12 0  1.2 0.12 0  1.23 0.12 0  1.26 0.12 0  1.29 0.12 0  1.32 0.12 0  1.35 0.12 0  1.38 0.12 0  1.41 0.12 0  1.44 0.12 0  1.47 0.12 0  1.5 0.12 0  0 0.14 0  0.03 0.14 0  0.06 0.14 0  0.09 0.14 0  0.12 0.14 0  0.15 0.14 0  0.18 0.14 0  0.21 0.14 0  0.24 0.14 0  0.27 0.14 0  0.3 0.14 0  0.33 0.14 0  0.36 0.14 0  0.39 0.14 0  0.42 0.14 0  0.45 0.14 0  0.48 0.14 0  0.51 0.14 0  0.54 0.14 0  0.57 0.14 0  0.6 0.14 0  0.63 0.14 0  0.66 0.14 0  0.6899999999999999 0.14 0  0.72 0.14 0  0.75 0.14 0  0.78 0.14 0  0.8100000000000001 0.14 0  0.84 0.14 0  0.87 0.14 0  0.9 0.14 0  0.93 0.14 0  0.96 0.14 0  0.99 0.14 0  1.02 0.14 0  1.05 0.14 0  1.08 0.14 0  1.11 0.14 0  1.14 0.14 0  1.17 0.14 0  1.2 0.14 0  1.23 0.14 0  1.26 0.14 0  1.29 0.14 0  1.32 0.14 0  1.35 0.14 0  1.38 0.14 0  1.41 0.14 0  1.44 0.14 0  1.47 0.14 0  1.5 0.14 0  0 0.16 0  0.03 0.16 0  0.06 0.16 0  0.09 0.16 0  0.12 0.16 0  0.15 0.16 0  0.18 0.16 0  0.21 0.16 0  0.24 0.16 0  0.27 0.16 0  0.3 0.16 0  0.33 0.16 0  0.36 0.16 0  0.39 0.16 0  0.42 0.16 0  0.45 0.16 0  0.48 0.16 0  0.51 0.16 0  0.54 0.16 0  0.57 0.16 0  0.6 0.16 0  0.63 0.16 0  0.66 0.16 0  0.6899999999999999 0.16 0  0.72 0.16 0  0.75 0.16 0  0.78 0.16 0  0.8100000000000001 0.16 0  0.84 0.16 0  0.87 0.16 0  0.9 0.16 0  0.93 0.16 0  0.96 0.16 0  0.99 0.16 0  1.02 0.16 0  1.05 0.16 0  1.08 0.16 0  1.11 0.16 0  1.14 0.16 0  1.17 0.16 0  1.2 0.16 0  1.23 0.16 0  1.26 0.16 0  1.29 0.16 0  1.32 0.16 0  1.35 0.16 0  1.38 0.16 0  1.41 0.16 0  1.44 0.16 0  1.47 0.16 0  1.5 0.16 0  0 0.18 0  0.03 0.18 0  0.06 0.18 0  0.09 0.18 0  0.12 0.18 0  0.15 0.18 0  0.18 0.18 0  0.21 0.18 0  0.24 0.18 0  0.27 0.18 0  0.3 0.18 0  0.33 0.18 0  0.36 0.18 0  0.39 0.18 0  0.42 0.18 0  0.45 0.18 0  0.48 0.18 0  0.51 0.18 0  0.54 0.18 0  0.57 0.18 0  0.6 0.18 0  0.63 0.18 0  0.66 0.18 0  0.6899999999999999 0.18 0  0.72 0.18 0  0.75 0.18 0  0.78 0.18 0  0.8100000000000001 0.18 0  0.84 0.18 0  0.87 0.18 0  0.9 0.18 0  0.93 0.18 0  0.96 0.18 0  0.99 0.18 0  1.02 0.18 0  1.05 0.18 0  1.08 0.18 0  1.11 0.18 0  1.14 0.18 0  1.17 0.18 0  1.2 0.18 0  1.23 0.18 0  1.26 0.18 0  1.29 0.18 0  1.32 0.18 0  1.35 0.18 0  1.38 0.18 0  1.41 0.18 0  1.44 0.18 0  1.47 0.18 0  1.5 0.18 0  0 0.2 0  0.03 0.2 0  0.06 0.2 0  0.09 0.2 0  0.12 0.2 0  0.15 0.2 0  0.18 0.2 0  0.21 0.2 0  0.24 0.2 0  0.27 0.2 0  0.3 0.2 0  0.33 0.2 0  0.36 0.2 0  0.39 0.2 0  0.42 0.2 0  0.45 0.2 0  0.48 0.2 0  0.51 0.2 0  0.54 0.2 0  0.57 0.2 0  0.6 0.2 0  0.63 0.2 0  0.66 0.2 0  0.6899999999999999 0.2 0  0.72 0.2 0  0.75 0.2 0  0.78 0.2 0  0.8100000000000001 0.2 0  0.84 0.2 0  0.87 0.2 0  0.9 0.2 0  0.93 0.2 0  0.96 0.2 0  0.99 0.2 0  1.02 0.2 0  1.05 0.2 0  1.08 0.2 0  1.11 0.2 0  1.14 0.2 0  1.17 0.2 0  1.2 0.2 0  1.23 0.2 0  1.26 0.2 0  1.29 0.2 0  1.32 0.2 0  1.35 0.2 0  1.38 0.2 0  1.41 0.2 0  1.44 0.2 0  1.47 0.2 0  1.5 0.2 0  0 0.22 0  0.03 0.22 0  0.06 0.22 0  0.09 0.22 0  0.12 0.22 0  0.15 0.22 0  0.18 0.22 0  0.21 0.22 0  0.24 0.22 0  0.27 0.22 0  0.3 0.22 0  0.33 0.22 0  0.36 0.22 0  0.39 0.22 0  0.42 0.22 0  0.45 0.22 0  0.48 0.22 0  0.51 0.22 0  0.54 0.22 0  0.57 0.22 0  0.6 0.22 0  0.63 0.22 0  0.66 0.22 0  0.6899999999999999 0.22 0  0.72 0.22 0  0.75 0.22 0  0.78 0.22 0  0.8100000000000001 0.22 0  0.84 0.22 0  0.87 0.22 0  0.9 0.22 0  0.93 0.22 0  0.96 0.22 0  0.99 0.22 0  1.02 0.22 0  1.05 0.22 0  1.08 0.22 0  1.11 0.22 0  1.14 0.22 0  1.17 0.22 0  1.2 0.22 0  1.23 0.22 0  1.26 0.22 0  1.29 0.22 0  1.32 0.22 0  1.35 0.22 0  1.38 0.22 0  1.41 0.22 0  1.44 0.22 0  1.47 0.22 0  1.5 0.22 0  0 0.24 0  0.03 0.24 0  0.06 0.24 0  0.09 0.24 0  0.12 0.24 0  0.15 0.24 0  0.18 0.24 0  0.21 0.24 0  0.24 0.24 0  0.27 0.24 0  0.3 0.24 0  0.33 0.24 0  0.36 0.24 0  0.39 0.24 0  0.42 0.24 0  0.45 0.24 0  0.48 0.24 0  0.51 0.24 0  0.54 0.24 0  0.57 0.24 0  0.6 0.24 0  0.63 0.24 0  0.66 0.24 0  0.6899999999999999 0.24 0  0.72 0.24 0  0.75 0.24 0  0.78 0.24 0  0.8100000000000001 0.24 0  0.84 0.24 0  0.87 0.24 0  0.9 0.24 0  0.93 0.24 0  0.96 0.24 0  0.99 0.24 0  1.02 0.24 0  1.05 0.24 0  1.08 0.24 0  1.11 0.24 0  1.14 0.24 0  1.17 0.24 0  1.2 0.24 0  1.23 0.24 0  1.26 0.24 0  1.29 0.24 0  1.32 0.24 0  1.35 0.24 0  1.38 0.24 0  1.41 0.24 0  1.44 0.24 0  1.47 0.24 0  1.5 0.24 0  0 0.26 0  0.03 0.26 0  0.06 0.26 0  0.09 0.26 0  0.12 0.26 0  0.15 0.26 0  0.18 0.26 0  0.21 0.26 0  0.24 0.26 0  0.27 0.26 0  0.3 0.26 0  0.33 0.26 0  0.36 0.26 0  0.39 0.26 0  0.42 0.26 0  0.45 0.26 0  0.48 0.26 0  0.51 0.26 0  0.54 0.26 0  0.57 0.26 0  0.6 0.26 0  0.63 0.26 0  0.66 0.26 0  0.6899999999999999 0.26 0  0.72 0.26 0  0.75 0.26 0  0.78 0.26 0  0.8100000000000001 0.26 0  0.84 0.26 0  0.87 0.26 0  0.9 0.26 0  0.93 0.26 0  0.96 0.26 0  0.99 0.26 0  1.02 0.26 0  1.05 0.26 0  1.08 0.26 0  1.11 0.26 0  1.14 0.26 0  1.17 0.26 0  1.2 0.26 0  1.23 0.26 0  1.26 0.26 0  1.29 0.26 0  1.32 0.26 0  1.35 0.26 0  1.38 0.26 0  1.41 0.26 0  1.44 0.26 0  1.47 0.26 0  1.5 0.26 0  0 0.28 0  0.03 0.28 0  0.06 0.28 0  0.09 0.28 0  0.12 0.28 0  0.15 0.28 0  0.18 0.28 0  0.21 0.28 0  0.24 0.28 0  0.27 0.28 0  0.3 0.28 0  0.33 0.28 0  0.36 0.28 0  0.39 0.28 0  0.42 0.28 0  0.45 0.28 0  0.48 0.28 0  0.51 0.28 0  0.54 0.28 0  0.57 0.28 0  0.6 0.28 0  0.63 0.28 0  0.66 0.28 0  0.6899999999999999 0.28 0  0.72 0.28 0  0.75 0.28 0  0.78 0.28 0  0.8100000000000001 0.28 0  0.84 0.28 0  0.87 0.28 0  0.9 0.28 0  0.93 0.28 0  0.96 0.28 0  0.99 0.28 0  1.02 0.28
[...]
<PointData  Scalars="sensitivity"> 
<DataArray  type="Float64"  Name="sensitivity"  format="ascii">-3.3520358918138070e-07  -7.7907971689994141e-06  -3.6696333816810744e-05  -1.0033608950851109e-04  -1.9969882662273494e-04  -3.1912974973328557e-04  -4.3720116341758477e-04  -5.3887543117056103e-04  -6.1917561482014859e-04  -6.8083416226560325e-04  -7.3020526646716121e-04  -7.7339498311681935e-04  -8.1380591912861655e-04  -8.5183463875710666e-04  -8.8620893915797392e-04  -9.1560535468597471e-04  -9.3953496050832675e-04  -9.5837973282170109e-04  -9.7299993692505468e-04  -9.8432669607102460e-04  -9.9312169888521426e-04  -9.9990439265635190e-04  -1.0049795279942024e-03  -1.0085009180550357e-03  -1.0105325899772697e-03  -1.0110916719457148e-03  -1.0101708424941633e-03  -1.0077421380722867e-03  -1.0037419327353192e-03  -9.9803420354090881e-04  -9.9035138905923079e-04  -9.8022381405150644e-04  -9.6693173813596791e-04  -9.4954455467833861e-04  -9.2712990510462792e-04  -8.9917142544290740e-04  -8.6605795095118286e-04  -8.2921555400499889e-04  -7.9033226620648820e-04  -7.4963821839660685e-04  -7.0429761274728401e-04  -6.4846795278588362e-04  -5.7554843052111176e-04  -4.8156887127733672e-04  -3.6853588417299238e-04  -2.4729555432052489e-04  -1.3730501498712111e-04  -5.8164310249577901e-05  -1.6386353036878071e-05  -1.6912560107668747e-06  -3.7032684399025745e-09  -4.1915660385776778e-06  -6.5287690741782349e-05  -2.9955287221704281e-04  -8.4655685595621665e-04  -1.7410568364280229e-03  -2.8534410518465626e-03  -3.9817541634718061e-03  -4.9731175746751712e-03  -5.7679523782220837e-03  -6.3810628584929675e-03  -6.8645768036323801e-03  -7.2732182444731220e-03  -7.6411311656449515e-03  -7.9768093120655154e-03  -8.2730874219726774e-03  -8.5209527944547191e-03  -8.7178035942029712e-03  -8.8683277072056973e-03  -8.9813079037329331e-03  -9.0660366360670024e-03  -9.1301208839446851e-03  -9.1787966033593758e-03  -9.2151863504907616e-03  -9.2409123916053944e-03  -9.2566937430146757e-03  -9.2627719492897088e-03  -9.2591447607367778e-03  -9.2456322852725904e-03  -9.2217839304449493e-03  -9.1866009264172481e-03  -9.1380482965606417e-03  -9.0724050498930398e-03  -8.9836759274517178e-03  -8.8635452561527436e-03  -8.7025720202347639e-03  -8.4931554184204776e-03  -8.2336567198350811e-03  -7.9307601010164732e-03  -7.5953918154972756e-03  -7.2301984198653302e-03  -6.8151844760319302e-03  -6.3046005132887635e-03  -5.6426115356527249e-03  -4.7906007137963223e-03  -3.7552674632929275e-03  -2.6157054637441202e-03  -1.5348109306757025e-03  -7.0674910736639454e-04  -2.3250825627552853e-04  -4.2643734202448253e-05  -1.1364107054420106e-06  -1.3708569980249710e-05  -1.5748112124182160e-04  -6.0808710147423602e-04  -1.6535403929797306e-03  -3.3652191118284740e-03  -5.4766475645514736e-03  -7.5879968432307158e-03  -9.3948372317342477e-03  -1.0773870414621141e-02  -1.1758315945462968e-02  -1.2472436548727770e-02  -1.3052562592725414e-02  -1.3583469311923821e-02  -1.4082843156757657e-02  -1.4529398214291287e-02  -1.4899079710417922e-02  -1.5183624555904560e-02  -1.5390750755466391e-02  -1.5536494987794571e-02  -1.5637913799858294e-02  -1.5709024478847016e-02  -1.5759649879065085e-02  -1.5795898602038439e-02  -1.5821194515489238e-02  -1.5837233435418346e-02  -1.5844638915941785e-02  -1.5843318198697588e-02  -1.5832587237569997e-02  -1.5811090256201994e-02  -1.5776462860266207e-02  -1.5724668304688785e-02  -1.5649055738768555e-02  -1.5539500369175679e-02  -1.5382488408463161e-02  -1.5163547169412272e-02  -1.4873334940007775e-02  -1.4516400993473438e-02  -1.4115590704156817e-02  -1.3699105349857670e-02  -1.3264990342365501e-02  -1.2745429714030530e-02  -1.2009969424683411e-02  -1.0919320484081056e-02  -9.3937860619462011e-03  -7.4627407825218475e-03  -5.2927770640753598e-03  -3.1900281899884205e-03  -1.5289792043200743e-03  -5.4519363885159264e-04  -1.3203103404350292e-04  -7.6282073465183251e-06  -2.5443885459007674e-05  -3.1389416746574825e-04  -1.1620291977467298e-03  -3.0225786322618398e-03  -5.8574347858330999e-03  -9.0457992199680908e-03  -1.1875253740991300e-02  -1.3896911819083169e-02  -1.5012425430659601e-02  -1.5412674542444648e-02  -1.5447472358237438e-02  -1.5456664643742256e-02  -1.5632970478737854e-02  -1.5992560539486698e-02  -1.6445940458591966e-02  -1.6890377813678126e-02  -1.7261463144673656e-02  -1.7538558968578293e-02  -1.7728933852071620e-02  -1.7851136852287279e-02  -1.7924842375297342e-02  -1.7966602901682577e-02  -1.7988957310131417e-02  -1.8000828945483049e-02  -1.8008091284825795e-02  -1.8013908252137778e-02  -1.8018855658835327e-02  -1.8020945632922777e-02  -1.8015606764605195e-02  -1.7995545973913698e-02  -1.7950373722842996e-02  -1.7866048502218661e-02  -1.7724695375893669e-02  -1.7506214817980113e-02  -1.7194157549902389e-02  -1.6788680269421541e-02  -1.6326295759759361e-02  -1.5895540258437695e-02  -1.5621702282211877e-02  -1.5593908750597175e-02  -1.5753655167710091e-02  -1.5833398626873364e-02  -1.5431276120225846e-02  -1.4187103260900589e-02  -1.1951053678161230e-02  -8.8960892608357864e-03  -5.5739466961616871e-03  -2.7554777881120644e-03  -1.0020841767063417e-03  -2.5651269068578583e-04  -1.8707039670289632e-05  -3.2086602212106297e-05  -6.3070131254991358e-04  -2.7367488352407813e-03  -6.8031505202974501e-03  -1.1757953719887191e-02  -1.6064376470200724e-02  -1.8889536971954050e-02  -2.0186558175108345e-02  -2.0338397097745643e-02  -1.9869647420164494e-02  -1.9282392945325404e-02  -1.8924840897311831e-02  -1.8920802444736793e-02  -1.9207167670451275e-02  -1.9638027175817030e-02  -2.0078260144696349e-02  -2.0446615149282265e-02  -2.0714800775424747e-02  -2.0888028636879569e-02  -2.0986096164047768e-02  -2.1031558071871858e-02  -2.1044298364824781e-02  -2.1039956161513079e-02  -2.1030051250668053e-02  -2.1022499395864470e-02  -2.1021959466655870e-02  -2.1029944796190261e-02  -2.1044810834259839e-02  -2.1061677774214964e-02  -2.1072220720778235e-02  -2.1064239921196787e-02  -2.1021135314193862e-02  -2.0921856931481780e-02  -2.0742543618637841e-02  -2.0461946830340413e-02  -2.0073484344887829e-02  -1.9605313931347981e-02  -1.9142518077138241e-02  -1.8831469482606913e-02  -1.8836459071453423e-02  -1.9237219340799999e-02  -1.9913345860623936e-02  -2.0506815890616995e-02  -2.0496738025411364e-02  -1.9308003243065797e-02  -1.6390977508262242e-02  -1.1709431762357565e-02  -6.3773750450891332e-03  -2.2808541090829490e-03  -4.6207768394766042e-04  -2.7502269730904416e-05  -4.3051708135316822e-05  -1.6732030635942551e-03  -7.4077164563922304e-03  -1.4661684089543632e-02  -2.0142855652365822e-02  -2.3174994951415000e-02  -2.4340186949860433e-02  -2.4434409131032762e-02  -2.3997404966863731e-02  -2.3327900175478051e-02  -2.2642559424223708e-02  -2.2110228349741114e-02  -2.1807452483094378e-02  -2.1711240882614665e-02  -2.1745483284935967e-02  -2.1834447952231082e-02  -2.1929230979527453e-02  -2.2007837917565408e-02  -2.2064993469521003e-02  -2.2103015224405862e-02  -2.2126505254051333e-02  -2.2139804092385966e-02  -2.2146071318981799e-02  -2.2147338626996187e-02  -2.2144955421530495e-02  -2.2139973931000312e-02  -2.2133331741633778e-02  -2.2125901011864398e-02  -2.2118448159603298e-02  -2.2111415727959681e-02  -2.2104427257282042e-02  -2.2095637349679949e-02  -2.2081306370178508e-02  -2.2055978467224999e-02  -2.2013764453162821e-02  -2.1952267884001349e-02  -2.1881336516913989e-02  -2.1835136564384513e-02  -2.1877106156849662e-02  -2.2081302858004602e-02  -2.2484813569613436e-02  -2.3039307639535697e-02  -2.3614314509504890e-02  -2.4059683470467184e-02  -2.4233019010684864e-02  -2.3741280340960590e-02  -2.1473863008942506e-02  -1.5669613179020211e-02  -6.7725135404282377e-03  -1.0359883273784608e-03  -2.8729734584900872e-05  -2.0294365324163797e-04  -4.6278898613574190e-03  -1.4673171927390696e-02  -2.1927181899485934e-02  -2.3867284943943249e-02  -2.3788813406025278e-02  -2.3963262300134566e-02  -2.4322354403381822e-02  -2.4617011862679148e-02  -2.4690416508611944e-02  -2.4488832240295504e-02  -2.4071857387310110e-02  -2.3542383991874194e-02  -2.2981789148811913e-02  -2.2439846147934463e-02  -2.1949630954746863e-02  -2.1535628878573576e-02  -2.1211839034763851e-02  -2.0979244545278573e-02  -2.0827644522501881e-02  -2.0740371421276136e-02  -2.0698879575312266e-02  -2.0685844548541631e-02  -2.0686923627881413e-02  -2.0691675864396516e-02  -2.0693974128867434e-02  -2.0692130443431864e-02  -2.0688911702567498e-02  -2.0691514249479286e-02  -2.0711400404753427e-02  -2.0763784075226874e-02  -2.0866530554566290e-02  -2.1038185916623469e-02  -2.1294689507590909e-02  -2.1644553602783091e-02  -2.2083830624141303e-02  -2.2594269942596810e-02  -2.3146776769699423e-02  -2.3704769918756117e-02  -2.4215104045126661e-02  -2.4584751285298922e-02  -2.4676100969993359e-02  -2.4376305070819528e-02  -2.3737420464300940e-02  -2.3076595864436340e-02  -2.2887640007064305e-02  -2.3183990161414595e-02  -2.2445401640292476e-02  -1.7029828582761856e-02  -4.3395042547944261e-03  -4.2697951161334483e-05  -1.1080684065546821e-03  -1.4865025242230960e-02  -2.1860933832759267e-02  -2.2086927553982973e-02  -2.6408841364457574e-02  -2.8938864510496778e-02  -2.9988683739832076e-02  -3.0415794355584058e-02  -3.0499689374557420e-02  -3.0336200187597653e-02  -2.9960946789565963e-02  -2.9418224274381618e-02  -2.8761444774146994e-02  -2.8030117388354960e-02  -2.7251595616453194e-02  -2.6457113476111741e-02  -2.5687266954531208e-02  -2.4983181060747858e-02  -2.4374872841135060e-02  -2.3876087985874955e-02  -2.3486318132058575e-02  -2.3196141695183713e-02  -2.2992455365520057e-02  -2.2862211109993369e-02  -2.2794653771065189e-02  -2.2782492530569107e-02  -2.2822423175343547e-02  -2.2915283334188973e-02  -2.3065957892893580e-02  -2.3282972999479606e-02  -2.3577551527804424e-02  -2.3961779785751265e-02  -2.4445508627609074e-02  -2.5031895879203556e-02  -2.5712537724852550e-02  -2.6465025173358279e-02  -2.7256807019450071e-02  -2.8055800646978407e-02  -2.8839131709227903e-02  -2.9584766525124786e-02  -3.0240919520411417e-02  -3.0697497858011794e-02  -3.0804909553778799e-02  -3.0452011052589802e-02  -2.9632823950132833e-02  -2.8451452650142900e-02  -2.6884948273552246e-02  -2.4378920431331535e-02  -2.0502692652116912e-02  -1.2637090837967871e-02  -2.6739171402296826e-04  -6.0318234799635086e-03  -2.7417070044700547e-02  -3.6441585796858064e-02  -3.5697077264872396e-02  -3.5315546851291339e-02  -3.5799884030278180e-02  -3.5636040957928432e-02  -3.5180221585726416e-02  -3.4621420406978180e-02  -3.4051862243100708e-02  -3.3516545665079715e-02  -3.3041284416180705e-02  -3.2633195863142679e-02  -3.2274878929557771e-02  -3.1932845342809116e-02  -3.1576270724281971e-02  -3.1191072482301990e-02  -3.0781846643845086e-02  -3.0365182187805335e-02  -2.9961607973736960e-02  -2.9590463803309177e-02  -2.9267937797178598e-02  -2.9006761573093082e-02  -2.8816322532958343e-02  -2.8702729274285577e-02  -2.8668818986312319e-02  -2.8714200656308090e-02  -2.8835400910677978e-02  -2.9026142926803583e-02  -2.9277757805420815e-02  -2.9579679695469919e-02  -2.9919905569741140e-02  -3.0285283763335884e-02  -3.0661739821734816e-02  -3.1035244007289669e-02  -3.1395125176831316e-02  -3.1740892875035405e-02  -3.2090533049758826e-02  -3.2483255864526980e-02  -3.2967975740959200e-02  -3.3575851277844501e-02  -3.4289614698283136e-02  -3.5032381977611639e-02  -3.5692277680009127e-02  -3.6177099664157664e-02  -3.6467822048928372e-02  -3.6559665276479282e-02  -3.6241140625837193e-02  -3.3974660757606495e-02  -2.5472944162539077e-02  -3.7075250150304219e-03  -1.5674784095677879e-02  -3.3716241066546630e-02  -3.5404685344156459e-02  -3.6595320437696324e-02  -3.6437218489060827e-02  -3.6113710002407651e-02  -3.5629535500829188e-02  -3.5013852855901133e-02  -3.4372454540362113e-02  -3.3797262213020408e-02  -3.3339864336143089e-02  -3.3018357834091773e-02  -3.2826861282310597e-02  -3.2740965005893012e-02  -3.2724699841319781e-02  -3.2740341336755602e-02  -3.2757008492745765e-02  -3.2754781780977078e-02  -3.2724564387178905e-02  -3.2665923746096795e-02  -3.2584757801263513e-02  -3.2491305106941260e-02  -3.2398222543928948e-02  -3.2318480291219524e-02  -3.2263190312675612e-02  -3.2239730767660811e-02  -3.2250532665698946e-02  -3.2292748430002106e-02  -3.2358834544126705e-02  -3.2437906405255262e-02  -3.2517580260259082e-02  -3.2585929364369742e-02  -3.2633220584919645e-02  -3.2653369252526675e-02  -3.2645553747471565e-02  -3.2616820885918850e-02  -3.2586061601099690e-02  -3.2587906199894739e-02  -3.2672531654837932e-02  -3.2896199505103849e-02  -3.3299721726601478e-02  -3.3878644434601625e-02  -3.4559142638242842e-02  -3.5208023356608081e-02  -3.5705791220340552e-02  -3.6025909425568138e-02  -3.6141417626499611e-02  -3.5802943296873550e-02  -3.5263834313055249e-02  -3.4159021984187486e-02  -1.5735282641051871e-02  -2.1720390086697933e-02  -3.7697265216363539e-02  -3.6001439808764801e-02  -3.6170989925846261e-02  -3.6340522926766455e-02  -3.5836856104255632e-02  -3.5156014496223603e-02  -3.4462122641045395e-02  -3.3800209462332163e-02  -3.3223597933992717e-02  -3.2783313476351335e-02  -3.2493512484202527e-02  -3.2338214541991615e-02  -3.2287716284079684e-02  -3.2309699554128823e-02  -3.2375144341875627e-02  -3.2460901051483478e-02  -3.2550062424155014e-02  -3.2631155389785498e-02  -3.2697138836366511e-02  -3.2744728603602315e-02  -3.2773965585680249e-02  -3.2787643703724507e-02  -3.2790323322310432e-02  -3.2786969709091951e-02  -3.2781526819798783e-02  -3.2775830356524038e-02  -3.2769172070879420e-02  -3.2758614865641696e-02  -3.2739918059975760e-02  -3.2708753066562866e-02  -3.2661838717152968e-02  -3.2597745595238932e-02  -3.2517422812932573e-02  -3.2424918914120200e-02  -3.2329055362828832e-02  -3.2246533071293403e-02  -3.2205717446667788e-02  -3.2248254619335052e-02  -3.2423690975386603e-02  -3.2772369592249100e-02  -3.3297212682876887e-02  -3.3939640251425242e-02  -3.4592885577438358e-02  -3.5150656857919488e-02  -3.5522084109914268e-02  -3.5731771012013601e-02  -3.5742763415176279e-02  -3.5771082097184895e-02  -3.8313966753338709e-02  -2.1041314236025743e-02  -3.1209077362724939e-02  -5.1970436732263973e-02  -4.2607537001777239e-02  -3.8093367861406623e-02  -3.7063266796605619e-02  -3.6908644519726280e-02  -3.6141533628343769e-02  -3.5136292243749423e-02  -3.4253051889378910e-02  -3.3542965877341714e-02  -3.3018087303086800e-02  -3.2670665425507159e-02  -3.2468490065035417e-02  -3.2370599956528884e-02  -3.2340863098393305e-02  -3.2352810507376088e-02  -3.2388773298810000e-02  -3.2437153958022151e-02  -3.2489954880558461e-02  -3.2541288480662352e-02  -3.2586814032707752e-02  -3.2623697729272774e-02  -3.2650645472742656e-02  -3.2667710920326616e-02  -3.2675814238896171e-02  -3.2676108657904539e-02  -3.2669429942768051e-02  -3.2656034949979283e-02  -3.2635705741444983e-02  -3.2608131949010216e-02  -3.2573366191107102e-02  -3.2532135671231359e-02  -3.2485912978679997e-02  -3.2436894684809016e-02  -3.2388359608007893e-02  -3.2346135835913087e-02  -3.2321794413988213e-02  -3.2337276979068588e-02  -3.2428665737138339e-02  -3.2644254836072695e-02  -3.3031407699507430e-02  -3.3612381751416315e-02  -3.4363892557639143e-02  -3.5214188077075589e-02  -3.6009169541879167e-02  -3.6521274972709628e-02  -3.6833531653514093e-02  -3.8453299137001067e-02  -4.3775959758520215e-02  -5.3111055880894133e-02  -2.8548772078313897e-02  -3.7258758758480316e-02  -6.4080030364886825e-02  -5.0539037709119869e-02  -4.1869105587019832e-02  -3.8212749758045311e-02  -3.7565455574160141e-02  -3.7198884494658760e-02  -3.6240844715394578e-02  -3.5221060500140143e-02  -3.4388657344556151e-02  -3.3775495706624921e-02  -3.3362301197356857e-02  -3.3105823938929232e-02  -3.2956392150718258e-02  -3.2873180753217358e-02  -3.2829304134452453e-02  -3.2809381265377406e-02  -3.2804927679331949e-02  -3.2810678368943871e-02  -3.2822594929857826e-02  -3.2837188676314015e-02  -3.2851539519368020e-02  -3.2863503342622176e-02  -3.2871811799181999e-02  -3.2875971940050069e-02  -3.2876024802658430e-02  -3.2872297619604092e-02  -3.2865274519737073e-02  -3.2855631408628579e-02  -3.2844376132278197e-02  -3.2832961837794598e-02  -3.2823244223935504e-02  -3.2817251057546827e-02  -3.2816924603641419e-02  -3.2824268911751171e-02  -3.2842614155868817e-02  -3.2879771249659573e-02  -3.2953197745095579e-02  -3.3095333592916207e-02  -3.3354266269647957e-02  -3.3783743901183702e-02  -3.4422070368397437e-02  -3.5269010642586134e-02  -3.6244050547962613e-02  -3.7061468429457109e-02  -3.7436140040960769e-02  -3.8348749398751512e-02  -4.2158316232175773e-02  -5.0842528111002754e-02  -6.4360270680102069e-02  -3.6124187083871315e-02  -3.6176883444544075e-02  -6.4792754840385602e-02  -5.1566552480163813e-02  -4.2842986141206359e-02  -3.8834497607522271e-02  -3.7837386192398473e-02  -3.7599152784885410e-02  -3.6891247145533074e-02  -3.5962655247633146e-02  -3.5152877245906544e-02  -3.4546406886226663e-02  -3.4132991460618767e-02  -3.3870034534980532e-02  -3.3707335576150771e-02  -3.3604023802462440e-02  -3.3534335738037983e-02  -3.3484885145768313e-02  -3.3449411451744099e-02  -3.3424676742694844e-02  -3.3408313837564346e-02  -3.3398106167778163e-02  -3.3391990335800280e-02  -3.3388272934039884e-02  -3.3385788863335923e-02  -3.3383911647802980e-02  -3.3382449624664773e-02  -3.3381521985718039e-02  -3.3381502894354903e-02  -3.3383062982453311e-02  -3.3387258638633531e-02  -3.3395564173925439e-02  -3.3409745388969722e-02  -3.3431549895898693e-02  -3.3462340337266187e-02  -3.3503025616470214e-02  -3.3554945150542900e-02  -3.3622592054058299e-02  -3.3718718872548202e-02  -3.3870586966005811e-02  -3.4122769168752058e-02  -3.4529977559613102e-02  -3.5138001284295686e-02  -3.5957875431022315e-02  -3.6910203524620364e-02  -3.7668469751856212e-02  -3.7891659346484682e-02  -3.8735414182704687e-02  -4.2574083898358428e-02  -5.1153685133254648e-02  -6.4346102251707213e-02  -3.7275254628242133e-02  -2.8635265583395377e-02  -5.3908027282379242e-02  -4.5234275636763653e-02  -3.9983466559169678e-02  -3.7964857506724493e-02  -3.7634160455833912e-02  -3.7443412959426325e-02  -3.6843993811233114e-02  -3.6079203667241419e-02  -3.5411054349046740e-02  -3.4920807505474140e-02  -3.4600296516245743e-02  -3.4407722722863264e-02  -3.4295530829281523e-02  -3.4226619934734089e-02  -3.4178809946401871e-02  -3.4141542422459696e-02  -3.4110701506486894e-02  -3.4084845366060670e-02  -3.4063317012515977e-02  -3.4045589427598173e-02  -3.4031187857098757e-02  -3.4019783881370225e-02  -3.4011258199429531e-02  -3.4005665337460501e-02  -3.4003128094380650e-02  -3.4003739452830632e-02  -3.4007545459740995e-02  -3.4014631732143114e-02  -3.4025266757612672e-02  -3.4040004557395746e-02  -3.4059647417788337e-02  -3.4085024316111462e-02  -3.4116643477700215e-02  -3.4154438067192830e-02  -3.4198102108282176e-02  -3.4248918698968213e-02  -3.4314122619121035e-02  -3.4413632262304435e-02  -3.4585562651142487e-02  -3.4883454618614307e-02  -3.5360249938871754e-02  -3.6042456279151994e-02  -3.6892008750519893e-02  -3.7690411149630489e-02  -3.7951664139442093e-02  -3.7951918348322129e-02  -3.9449026975910059e-02  -4.4120585642145174e-02  -5.2811384102816668e-02  -3.1286586201551003e-02  -2.1045721133652572e-02  -3.9080652463014461e-02  -3.6717491474791052e-02  -3.6596421196449243e-02  -3.6936585939440825e-02  -3.7000874352465726e-02  -3.6724742358611173e-02  -3.6184530394772645e-02  -3.5584542322195677e-02  -3.5089774336777894e-02  -3.4761711762401254e-02  -3.4587470257982415e-02  -3.4520345741827184e-02  -3.4512308482415578e-02  -3.4529244830639627e-02  -3.4552126640476258e-02  -3.4572190989944400e-02  -3.4586135969369380e-02  -3.4593292095505795e-02  -3.4594315255075662e-02  -3.4590578480634751e-02  -3.4583821535186847e-02  -3.4575899717202208e-02  -3.4568562744997346e-02  -3.4563231795513710e-02  -3.4560791923945275e-02  -3.4561457872444364e-02  -3.4564772986891382e-02  -3.4569760496046181e-02  -3.4575186952226479e-02  -3.4579852539613452e-02  -