<?xml version="1.0"?>
<VTKFile type="UnstructuredGrid"  version="0.1"  >
<UnstructuredGrid>
<Piece  NumberOfPoints="2601" NumberOfCells="5000">
<Points>
<DataArray  type="Float64"  NumberOfComponents="3"  format="ascii">0 0 0  0.03 0 0  0.06 0 0  0.09 0 0  0.12 0 0  0.15 0 0  0.18 0 0  0.21 0 0  0.24 0 0  0.27 0 0  0.3 0 0  0.33 0 0  0.36 0 0  0.39 0 0  0.42 0 0  0.45 0 0  0.48 0 0  0.51 0 0  0.54 0 0  0.57 0 0  0.6 0 0  0.63 0 0  0.66 0 0  0.6899999999999999 0 0  0.72 0 0  0.75 0 0  0.78 0 0  0.8100000000000001 0 0  0.84 0 0  0.87 0 0  0.9 0 0  0.93 0 0  0.96 0 0  0.99 0 0  1.02 0 0  1.05 0 0  1.08 0 0  1.11 0 0  1.14 0 0  1.17 0 0  1.2 0 0  1.23 0 0  1.26 0 0  1.29 0 0  1.32 0 0  1.35 0 0  1.38 0 0  1.41 0 0  1.44 0 0  1.47 0 0  1.5 0 0  0 0.02 0  0.03 0.02 0  0.06 0.02 0  0.09 0.02 0  0.12 0.02 0  0.15 0.02 0  0.18 0.02 0  0.21 0.02 0  0.24 0.02 0  0.27 0.02 0  0.3 0.02 0  0.33 0.02 0  0.36 0.02 0  0.39 0.02 0  0.42 0.02 0  0.45 0.02 0  0.48 0.02 0  0.51 0.02 0  0.54 0.02 0  0.57 0.02 0  0.6 0.02 0  0.63 0.02 0  0.66 0.02 0  0.6899999999999999 0.02 0  0.72 0.02 0  0.75 0.02 0  0.78 0.02 0  0.8100000000000001 0.02 0  0.84 0.02 0  0.87 0.02 0  0.9 0.02 0  0.93 0.02 0  0.96 0.02 0  0.99 0.02 0  1.02 0.02 0  1.05 0.02 0  1.08 0.02 0  1.11 0.02 0  1.14 0.02 0  1.17 0.02 0  1.2 0.02 0  1.23 0.02 0  1.26 0.02 0  1.29 0.02 0  1.32 0.02 0  1.35 0.02 0  1.38 0.02 0  1.41 0.02 0  1.44 0.02 0  1.47 0.02 0  1.5 0.02 0  0 0.04 0  0.03 0.04 0  0.06 0.04 0  0.09 0.04 0  0.12 0.04 0  0.15 0.04 0  0.18 0.04 0  0.21 0.04 0  0.24 0.04 0  0.27 0.04 0  0.3 0.04 0  0.33 0.04 0  0.36 0.04 0  0.39 0.04 0  0.42 0.04 0  0.45 0.04 0  0.48 0.04 0  0.51 0.04 0  0.54 0.04 0  0.57 0.04 0  0.6 0.04 0  0.63 0.04 0  0.66 0.04 0  0.6899999999999999 0.04 0  0.72 0.04 0  0.75 0.04 0  0.78 0.04 0  0.8100000000000001 0.04 0  0.84 0.04 0  0.87 0.04 0  0.9 0.04 0  0.93 0.04 0  0.96 0.04 0  0.99 0.04 0  1.02 0.04 0  1.05 0.04 0  1.08 0.04 0  1.11 0.04 0  1.14 0.04 0  1.17 0.04 0  1.2 0.04 0  1.23 0.04 0  1.26 0.04 0  1.29 0.04 0  1.32 0.04 0  1.35 0.04 0  1.38 0.04 0  1.41 0.04 0  1.44 0.04 0  1.47 0.04 0  1.5 0.04 0  0 0.06 0  0.03 0.06 0  0.06 0.06 0  0.09 0.06 0  0.12 0.06 0  0.15 0.06 0  0.18 0.06 0  0.21 0.06 0  0.24 0.06 0  0.27 0.06 0  0.3 0.06 0  0.33 0.06 0  0.36 0.06 0  0.39 0.06 0  0.42 0.06 0  0.45 0.06 0  0.48 0.06 0  0.51 0.06 0  0.54 0.06 0  0.57 0.06 0  0.6 0.06 0  0.63 0.06 0  0.66 0.06 0  0.6899999999999999 0.06 0  0.72 0.06 0  0.75 0.06 0  0.78 0.06 0  0.8100000000000001 0.06 0  0.84 0.06 0  0.87 0.06 0  0.9 0.06 0  0.93 0.06 0  0.96 0.06 0  0.99 0.06 0  1.02 0.06 0  1.05 0.06 0  1.08 0.06 0  1.11 0.06 0  1.14 0.06 0  1.17 0.06 0  1.2 0.06 0  1.23 0.06 0  1.26 0.06 0  1.29 0.06 0  1.32 0.06 0  1.35 0.06 0  1.38 0.06 0  1.41 0.06 0  1.44 0.06 0  1.47 0.06 0  1.5 0.06 0  0 0.08 0  0.03 0.08 0  0.06 0.08 0  0.09 0.08 0  0.12 0.08 0  0.15 0.08 0  0.18 0.08 0  0.21 0.08 0  0.24 0.08 0  0.27 0.08 0  0.3 0.08 0  0.33 0.08 0  0.36 0.08 0  0.39 0.08 0  0.42 0.08 0  0.45 0.08 0  0.48 0.08 0  0.51 0.08 0  0.54 0.08 0  0.57 0.08 0  0.6 0.08 0  0.63 0.08 0  0.66 0.08 0  0.6899999999999999 0.08 0  0.72 0.08 0  0.75 0.08 0  0.78 0.08 0  0.8100000000000001 0.08 0  0.84 0.08 0  0.87 0.08 0  0.9 0.08 0  0.93 0.08 0  0.96 0.08 0  0.99 0.08 0  1.02 0.08 0  1.05 0.08 0  1.08 0.08 0  1.11 0.08 0  1.14 0.08 0  1.17 0.08 0  1.2 0.08 0  1.23 0.08 0  1.26 0.08 0  1.29 0.08 0  1.32 0.08 0  1.35 0.08 0  1.38 0.08 0  1.41 0.08 0  1.44 0.08 0  1.47 0.08 0  1.5 0.08 0  0 0.1 0  0.03 0.1 0  0.06 0.1 0  0.09 0.1 0  0.12 0.1 0  0.15 0.1 0  0.18 0.1 0  0.21 0.1 0  0.24 0.1 0  0.27 0.1 0  0.3 0.1 0  0.33 0.1 0  0.36 0.1 0  0.39 0.1 0  0.42 0.1 0  0.45 0.1 0  0.48 0.1 0  0.51 0.1 0  0.54 0.1 0  0.57 0.1 0  0.6 0.1 0  0.63 0.1 0  0.66 0.1 0  0.6899999999999999 0.1 0  0.72 0.1 0  0.75 0.1 0  0.78 0.1 0  0.8100000000000001 0.1 0  0.84 0.1 0  0.87 0.1 0  0.9 0.1 0  0.93 0.1 0  0.96 0.1 0  0.99 0.1 0  1.02 0.1 0  1.05 0.1 0  1.08 0.1 0  1.11 0.1 0  1.14 0.1 0  1.17 0.1 0  1.2 0.1 0  1.23 0.1 0  1.26 0.1 0  1.29 0.1 0  1.32 0.1 0  1.35 0.1 0  1.38 0.1 0  1.41 0.1 0  1.44 0.1 0  1.47 0.1 0  1.5 0.1 0  0 0.12 0  0.03 0.12 0  0.06 0.12 0  0.09 0.12 0  0.12 0.12 0  0.15 0.12 0  0.18 0.12 0  0.21 0.12 0  0.24 0.12 0  0.27 0.12 0  0.3 0.12 0  0.33 0.12 0  0.36 0.12 0  0.39 0.12 0  0.42 0.12 0  0.45 0.12 0  0.48 0.12 0  0.51 0.12 0  0.54 0.12 0  0.57 0.12 0  0.6 0.12 0  0.63 0.12 0  0.66 0.12 0  0.6899999999999999 0.12 0  0.72 0.12 0  0.75 0.12 0  0.78 0.12 0  0.8100000000000001 0.12 0  0.84 0.12 0  0.87 0.12 0  0.9 0.12 0  0.93 0.12 0  0.96 0.12 0  0.99 0.12 0  1.02 0.12 0  1.05 0.12 0  1.08 0.12 0  1.11 0.12 0  1.14 0.12 0  1.17 0.12 0  1.2 0.12 0  1.23 0.12 0  1.26 0.12 0  1.29 0.12 0  1.32 0.12 0  1.35 0.12 0  1.38 0.12 0  1.41 0.12 0  1.44 0.12 0  1.47 0.12 0  1.5 0.12 0  0 0.14 0  0.03 0.14 0  0.06 0.14 0  0.09 0.14 0  0.12 0.14 0  0.15 0.14 0  0.18 0.14 0  0.21 0.14 0  0.24 0.14 0  0.27 0.14 0  0.3 0.14 0  0.33 0.14 0  0.36 0.14 0  0.39 0.14 0  0.42 0.14 0  0.45 0.14 0  0.48 0.14 0  0.51 0.14 0  0.54 0.14 0  0.57 0.14 0  0.6 0.14 0  0.63 0.14 0  0.66 0.14 0  0.6899999999999999 0.14 0  0.72 0.14 0  0.75 0.14 0  0.78 0.14 0  0.8100000000000001 0.14 0  0.84 0.14 0  0.87 0.14 0  0.9 0.14 0  0.93 0.14 0  0.96 0.14 0  0.99 0.14 0  1.02 0.14 0  1.05 0.14 0  1.08 0.14 0  1.11 0.14 0  1.14 0.14 0  1.17 0.14 0  1.2 0.14 0  1.23 0.14 0  1.26 0.14 0  1.29 0.14 0  1.32 0.14 0  1.35 0.14 0  1.38 0.14 0  1.41 0.14 0  1.44 0.14 0  1.47 0.14 0  1.5 0.14 0  0 0.16 0  0.03 0.16 0  0.06 0.16 0  0.09 0.16 0  0.12 0.16 0  0.15 0.16 0  0.18 0.16 0  0.21 0.16 0  0.24 0.16 0  0.27 0.16 0  0.3 0.16 0  0.33 0.16 0  0.36 0.16 0  0.39 0.16 0  0.42 0.16 0  0.45 0.16 0  0.48 0.16 0  0.51 0.16 0  0.54 0.16 0  0.57 0.16 0  0.6 0.16 0  0.63 0.16 0  0.66 0.16 0  0.6899999999999999 0.16 0  0.72 0.16 0  0.75 0.16 0  0.78 0.16 0  0.8100000000000001 0.16 0  0.84 0.16 0  0.87 0.16 0  0.9 0.16 0  0.93 0.16 0  0.96 0.16 0  0.99 0.16 0  1.02 0.16 0  1.05 0.16 0  1.08 0.16 0  1.11 0.16 0  1.14 0.16 0  1.17 0.16 0  1.2 0.16 0  1.23 0.16 0  1.26 0.16 0  1.29 0.16 0  1.32 0.16 0  1.35 0.16 0  1.38 0.16 0  1.41 0.16 0  1.44 0.16 0  1.47 0.16 0  1.5 0.16 0  0 0.18 0  0.03 0.18 0  0.06 0.18 0  0.09 0.18 0  0.12 0.18 0  0.15 0.18 0  0.18 0.18 0  0.21 0.18 0  0.24 0.18 0  0.27 0.18 0  0.3 0.18 0  0.33 0.18 0  0.36 0.18 0  0.39 0.18 0  0.42 0.18 0  0.45 0.18 0  0.48 0.18 0  0.51 0.18 0  0.54 0.18 0  0.57 0.18 0  0.6 0.18 0  0.63 0.18 0  0.66 0.18 0  0.6899999999999999 0.18 0  0.72 0.18 0  0.75 0.18 0  0.78 0.18 0  0.8100000000000001 0.18 0  0.84 0.18 0  0.87 0.18 0  0.9 0.18 0  0.93 0.18 0  0.96 0.18 0  0.99 0.18 0  1.02 0.18 0  1.05 0.18 0  1.08 0.18 0  1.11 0.18 0  1.14 0.18 0  1.17 0.18 0  1.2 0.18 0  1.23 0.18 0  1.26 0.18 0  1.29 0.18 0  1.32 0.18 0  1.35 0.18 0  1.38 0.18 0  1.41 0.18 0  1.44 0.18 0  1.47 0.18 0  1.5 0.18 0  0 0.2 0  0.03 0.2 0  0.06 0.2 0  0.09 0.2 0  0.12 0.2 0  0.15 0.2 0  0.18 0.2 0  0.21 0.2 0  0.24 0.2 0  0.27 0.2 0  0.3 0.2 0  0.33 0.2 0  0.36 0.2 0  0.39 0.2 0  0.42 0.2 0  0.45 0.2 0  0.48 0.2 0  0.51 0.2 0  0.54 0.2 0  0.57 0.2 0  0.6 0.2 0  0.63 0.2 0  0.66 0.2 0  0.6899999999999999 0.2 0  0.72 0.2 0  0.75 0.2 0  0.78 0.2 0  0.8100000000000001 0.2 0  0.84 0.2 0  0.87 0.2 0  0.9 0.2 0  0.93 0.2 0  0.96 0.2 0  0.99 0.2 0  1.02 0.2 0  1.05 0.2 0  1.08 0.2 0  1.11 0.2 0  1.14 0.2 0  1.17 0.2 0  1.2 0.2 0  1.23 0.2 0  1.26 0.2 0  1.29 0.2 0  1.32 0.2 0  1.35 0.2 0  1.38 0.2 0  1.41 0.2 0  1.44 0.2 0  1.47 0.2 0  1.5 0.2 0  0 0.22 0  0.03 0.22 0  0.06 0.22 0  0.09 0.22 0  0.12 0.22 0  0.15 0.22 0  0.18 0.22 0  0.21 0.22 0  0.24 0.22 0  0.27 0.22 0  0.3 0.22 0  0.33 0.22 0  0.36 0.22 0  0.39 0.22 0  0.42 0.22 0  0.45 0.22 0  0.48 0.22 0  0.51 0.22 0  0.54 0.22 0  0.57 0.22 0  0.6 0.22 0  0.63 0.22 0  0.66 0.22 0  0.6899999999999999 0.22 0  0.72 0.22 0  0.75 0.22 0  0.78 0.22 0  0.8100000000000001 0.22 0  0.84 0.22 0  0.87 0.22 0  0.9 0.22 0  0.93 0.22 0  0.96 0.22 0  0.99 0.22 0  1.02 0.22 0  1.05 0.22 0  1.08 0.22 0  1.11 0.22 0  1.14 0.22 0  1.17 0.22 0  1.2 0.22 0  1.23 0.22 0  1.26 0.22 0  1.29 0.22 0  1.32 0.22 0  1.35 0.22 0  1.38 0.22 0  1.41 0.22 0  1.44 0.22 0  1.47 0.22 0  1.5 0.22 0  0 0.24 0  0.03 0.24 0  0.06 0.24 0  0.09 0.24 0  0.12 0.24 0  0.15 0.24 0  0.18 0.24 0  0.21 0.24 0  0.24 0.24 0  0.27 0.24 0  0.3 0.24 0  0.33 0.24 0  0.36 0.24 0  0.39 0.24 0  0.42 0.24 0  0.45 0.24 0  0.48 0.24 0  0.51 0.24 0  0.54 0.24 0  0.57 0.24 0  0.6 0.24 0  0.63 0.24 0  0.66 0.24 0  0.6899999999999999 0.24 0  0.72 0.24 0  0.75 0.24 0  0.78 0.24 0  0.8100000000000001 0.24 0  0.84 0.24 0  0.87 0.24 0  0.9 0.24 0  0.93 0.24 0  0.96 0.24 0  0.99 0.24 0  1.02 0.24 0  1.05 0.24 0  1.08 0.24 0  1.11 0.24 0  1.14 0.24 0  1.17 0.24 0  1.2 0.24 0  1.23 0.24 0  1.26 0.24 0  1.29 0.24 0  1.32 0.24 0  1.35 0.24 0  1.38 0.24 0  1.41 0.24 0  1.44 0.24 0  1.47 0.24 0  1.5 0.24 0  0 0.26 0  0.03 0.26 0  0.06 0.26 0  0.09 0.26 0  0.12 0.26 0  0.15 0.26 0  0.18 0.26 0  0.21 0.26 0  0.24 0.26 0  0.27 0.26 0  0.3 0.26 0  0.33 0.26 0  0.36 0.26 0  0.39 0.26 0  0.42 0.26 0  0.45 0.26 0  0.48 0.26 0  0.51 0.26 0  0.54 0.26 0  0.57 0.26 0  0.6 0.26 0  0.63 0.26 0  0.66 0.26 0  0.6899999999999999 0.26 0  0.72 0.26 0  0.75 0.26 0  0.78 0.26 0  0.8100000000000001 0.26 0  0.84 0.26 0  0.87 0.26 0  0.9 0.26 0  0.93 0.26 0  0.96 0.26 0  0.99 0.26 0  1.02 0.26 0  1.05 0.26 0  1.08 0.26 0  1.11 0.26 0  1.14 0.26 0  1.17 0.26 0  1.2 0.26 0  1.23 0.26 0  1.26 0.26 0  1.29 0.26 0  1.32 0.26 0  1.35 0.26 0  1.38 0.26 0  1.41 0.26 0  1.44 0.26 0  1.47 0.26 0  1.5 0.26 0  0 0.28 0  0.03 0.28 0  0.06 0.28 0  0.09 0.28 0  0.12 0.28 0  0.15 0.28 0  0.18 0.28 0  0.21 0.28 0  0.24 0.28 0  0.27 0.28 0  0.3 0.28 0  0.33 0.28 0  0.36 0.28 0  0.39 0.28 0  0.42 0.28 0  0.45 0.28 0  0.48 0.28 0  0.51 0.28 0  0.54 0.28 0  0.57 0.28 0  0.6 0.28 0  0.63 0.28 0  0.66 0.28 0  0.6899999999999999 0.28 0  0.72 0.28 0  0.75 0.28 0  0.78 0.28 0  0.8100000000000001 0.28 0  0.84 0.28 0  0.87 0.28 0  0.9 0.28 0  0.93 0.28 0  0.96 0.28 0  0.99 0.28 0  1.02 0.28
[...]
<PointData  Scalars="sensitivity"> 
<DataArray  type="Float64"  Name="sensitivity"  format="ascii">-1.3042977372070770e-06  -1.8495179726490944e-05  -7.7025078791259909e-05  -1.9596247871985037e-04  -3.7566388470323264e-04  -5.9353339797222281e-04  -8.1744341056907163e-04  -1.0200428860631975e-03  -1.1851964774025855e-03  -1.3074981369697602e-03  -1.3885026217953073e-03  -1.4332420885671165e-03  -1.4482245835741481e-03  -1.4403608181525870e-03  -1.4162529383881324e-03  -1.3817314132725637e-03  -1.3416456298753123e-03  -1.2998408409316561e-03  -1.2592294624280849e-03  -1.2219044887227775e-03  -1.1892793944482782e-03  -1.1622452210489074e-03  -1.1413264607546864e-03  -1.1268135940823481e-03  -1.1188581686047434e-03  -1.1175295419020269e-03  -1.1228413959826716e-03  -1.1347562945675511e-03  -1.1531696706090777e-03  -1.1778665054085217e-03  -1.2084411089576363e-03  -1.2441765467461948e-03  -1.2838931585237325e-03  -1.3257861209284888e-03  -1.3672732203675983e-03  -1.4048683516636291e-03  -1.4341024660918771e-03  -1.4495340138351424e-03  -1.4449061745887501e-03  -1.4134883873160972e-03  -1.3485385535788922e-03  -1.2440988481977136e-03  -1.0967472857350067e-03  -9.0865257111012114e-04  -6.9142004257002042e-04  -4.6758582678070349e-04  -2.6766335640335395e-04  -1.2080789795495761e-04  -3.8170716028883099e-05  -5.4756808688694281e-06  -5.2714455105012115e-08  -9.3789562632379779e-06  -7.5541911888710539e-05  -3.0079184900817915e-04  -7.9022215947911908e-04  -1.5631343130164896e-03  -2.5325272314688906e-03  -3.5563678797607681e-03  -4.5037200169561198e-03  -5.2910696637919327e-03  -5.8856826191281799e-03  -6.2897490625706655e-03  -6.5235542106070552e-03  -6.6155000813001800e-03  -6.5968422956722709e-03  -6.4981490151137722e-03  -6.3468547049122673e-03  -6.1660471093958301e-03  -5.9742230020336309e-03  -5.7855446891938046e-03  -5.6103104135370859e-03  -5.4555579889822249e-03  -5.3257713016931687e-03  -5.2236116553360462e-03  -5.1505629547743534e-03  -5.1074088942907273e-03  -5.0945257124305971e-03  -5.1120261222231574e-03  -5.1597996857247396e-03  -5.2374655728473383e-03  -5.3442111978309207e-03  -5.4784675727052251e-03  -5.6373928182967704e-03  -5.8161946781058937e-03  -6.0073848437121888e-03  -6.2000716973962125e-03  -6.3793568374325340e-03  -6.5259142528908973e-03  -6.6159109987508945e-03  -6.6216369658159647e-03  -6.5129042140875393e-03  -6.2590017361579793e-03  -5.8315039132603250e-03  -5.2110360260693321e-03  -4.3990712080311262e-03  -3.4359897257485853e-03  -2.4122569869987078e-03  -1.4584278946628572e-03  -7.1415555349623979e-04  -2.6087764787215270e-04  -6.2295481502874152e-05  -3.6020977828214420e-06  -2.7053596468742412e-05  -1.4691357804786116e-04  -4.3703067551097548e-04  -1.0520736797182048e-03  -1.9939337912980889e-03  -3.1430184536630277e-03  -4.3343103845238720e-03  -5.4209215031460088e-03  -6.3129288180377302e-03  -6.9799553076009511e-03  -7.4284313334685732e-03  -7.6819370998609839e-03  -7.7725211820710320e-03  -7.7361360573636366e-03  -7.6083432297577719e-03  -7.4210341131224636e-03  -7.2009568013374735e-03  -6.9695338258048654e-03  -6.7431848416833872e-03  -6.5338124193209174e-03  -6.3494503936557612e-03  -6.1950953544253973e-03  -6.0736152390398661e-03  -5.9865570845624126e-03  -5.9347249830712301e-03  -5.9185098709789172e-03  -5.9380364253391899e-03  -5.9932046597523771e-03  -6.0836541271791353e-03  -6.2086076775365318e-03  -6.3665104726915583e-03  -6.5544081300838112e-03  -6.7671031143621274e-03  -6.9962435037215836e-03  -7.2294964276888463e-03  -7.4498669458685374e-03  -7.6352112178554006e-03  -7.7580713093939333e-03  -7.7865055582952087e-03  -7.6856717292900735e-03  -7.4210023380529800e-03  -6.9595499839017472e-03  -6.2764821201683795e-03  -5.3656851304967005e-03  -4.2642571503582792e-03  -3.0717937911248533e-03  -1.9280369087117852e-03  -9.9357461429884194e-04  -3.9780103681583373e-04  -1.3065874528632622e-04  -1.6363420121320547e-05  -4.4265057542658712e-05  -2.4908372657858694e-04  -6.5044854832113316e-04  -1.4066430089803336e-03  -2.4509205053793687e-03  -3.6402027008309995e-03  -4.8269959745301299e-03  -5.8736565113059096e-03  -6.7061302711473080e-03  -7.3137935221384339e-03  -7.7111321233370349e-03  -7.9204803532458550e-03  -7.9717007217431270e-03  -7.9003820804300282e-03  -7.7423672448484245e-03  -7.5294264840474823e-03  -7.2878825275474093e-03  -7.0387917737329943e-03  -6.7983306666853163e-03  -6.5781244449000268e-03  -6.3857716356597967e-03  -6.2257084898457203e-03  -6.1002564998638726e-03  -6.0105547789639164e-03  -5.9571746007332418e-03  -5.9404080194703328e-03  -5.9603553147672570e-03  -6.0169453423018771e-03  -6.1099360228187207e-03  -6.2388230330932383e-03  -6.4025097056761536e-03  -6.5986277572576205e-03  -6.8225550455377282e-03  -7.0663871848716834e-03  -7.3180979698649739e-03  -7.5609925555992314e-03  -7.7732188083257554e-03  -7.9273686107127102e-03  -7.9912295459732344e-03  -7.9301856052022435e-03  -7.7136099633065064e-03  -7.3088804564394299e-03  -6.6875178399093743e-03  -5.8340377418062929e-03  -4.7646678572671854e-03  -3.5757575123656887e-03  -2.3873604458974997e-03  -1.3312714902551908e-03  -5.7885323431507315e-04  -2.1200781143405998e-04  -3.4296419013726282e-05  -4.1174265922749650e-05  -3.7466994879251732e-04  -1.0709515751072714e-03  -2.1170552490023735e-03  -3.2651944707173149e-03  -4.4339022986523945e-03  -5.5626262881757916e-03  -6.5022067439766684e-03  -7.2111008170765711e-03  -7.7138376926503089e-03  -8.0287418532182832e-03  -8.1693317984161112e-03  -8.1601855982201352e-03  -8.0367753860913788e-03  -7.8354408292727103e-03  -7.5871538655073734e-03  -7.3169537098692981e-03  -7.0449884963223394e-03  -6.7869202300989053e-03  -6.5538595759181461e-03  -6.3526216699664618e-03  -6.1866547034547439e-03  -6.0573513834759297e-03  -5.9651991258873847e-03  -5.9104348415633797e-03  -5.8932321274050518e-03  -5.9136643351405888e-03  -5.9716802061558112e-03  -6.0671746850284366e-03  -6.2000327730697413e-03  -6.3698820405378468e-03  -6.5753324883313551e-03  -6.8127438335931169e-03  -7.0749483347740871e-03  -7.3504887889557936e-03  -7.6233819964311236e-03  -7.8724003614820647e-03  -8.0707048121904899e-03  -8.1858272696830690e-03  -8.1850068570298740e-03  -8.0405776065617749e-03  -7.7250226990515300e-03  -7.2109948969701172e-03  -6.4914035059754609e-03  -5.5123443646763817e-03  -4.3847442967416056e-03  -3.2389379862104951e-03  -2.0505943412818962e-03  -9.5963974183338387e-04  -2.8042061615649895e-04  -4.0995410890639956e-05  -4.5285951361917770e-05  -7.0896680749176172e-04  -2.6700153135272718e-03  -5.0121274429581831e-03  -5.9997029438563195e-03  -6.3999754298415092e-03  -6.9062509727490003e-03  -7.4358117760341923e-03  -7.8888172727639896e-03  -8.2331137879763285e-03  -8.4410375201652860e-03  -8.4920265792303162e-03  -8.4015643007526054e-03  -8.2079852843125242e-03  -7.9494183636113699e-03  -7.6550142490275632e-03  -7.3474317558077278e-03  -7.0455544064307778e-03  -6.7645939352466026e-03  -6.5151457459171527e-03  -6.3029331958310564e-03  -6.1299022869487170e-03  -5.9960518019697281e-03  -5.9009665122037843e-03  -5.8445030075881220e-03  -5.8267600767531406e-03  -5.8478049698982683e-03  -5.9075641672293386e-03  -6.0060228467943514e-03  -6.1435291329007330e-03  -6.3207318433185552e-03  -6.5377147942798503e-03  -6.7923183625251031e-03  -7.0783187649758935e-03  -7.3849608453081866e-03  -7.6968736911709962e-03  -7.9940505653509769e-03  -8.2521838671052988e-03  -8.4361107066713206e-03  -8.5130093590942962e-03  -8.4486103463857921e-03  -8.2933940893874254e-03  -7.9828371147951296e-03  -7.6445563608588700e-03  -7.2026710438862808e-03  -6.8524905310893575e-03  -6.3424393115218847e-03  -4.3700598427008179e-03  -1.8912573737771806e-03  -3.8674396517614912e-04  -2.7527814727894215e-05  -5.9555144889604917e-04  -3.0373890036825158e-03  -1.0715457847515285e-02  -1.9674912266327331e-02  -2.2405448539047905e-02  -1.8557654514776634e-02  -1.3456842398153359e-02  -1.0054001624253265e-02  -8.9588623088824419e-03  -8.9043562719080382e-03  -8.9578833343029046e-03  -8.8956592374414209e-03  -8.6987053899067694e-03  -8.4147056561804916e-03  -8.0852604569747449e-03  -7.7345282458409310e-03  -7.3809171617391540e-03  -7.0418598040307154e-03  -6.7325972592724480e-03  -6.4634583219860811e-03  -6.2386794930686332e-03  -6.0579262494158724e-03  -5.9191424663178555e-03  -5.8207376954277461e-03  -5.7622427270378725e-03  -5.7438358419231650e-03  -5.7656392087779207e-03  -5.8274563225247118e-03  -5.9291944703288666e-03  -6.0716518572766836e-03  -6.2568553944264233e-03  -6.4870847736991817e-03  -6.7624460530363055e-03  -7.0777789524271040e-03  -7.4227564506778431e-03  -7.7822759029694327e-03  -8.1407938219283209e-03  -8.4752501650794208e-03  -8.7430037861877391e-03  -8.9220875131909971e-03  -8.9787360812626990e-03  -9.1771739599794486e-03  -9.5192260985438471e-03  -1.1073267943850600e-02  -1.3783967428766170e-02  -1.7907538677709636e-02  -2.2264803191865842e-02  -2.0275898571291921e-02  -1.1913716966572750e-02  -2.5282541080628601e-03  -9.3193438006404394e-05  -1.8126691619230403e-03  -1.8758216381052798e-02  -3.1513662987826166e-02  -3.1517216417402370e-02  -3.1517557617641738e-02  -3.1515493687806477e-02  -3.1501592045221974e-02  -2.5009499369031164e-02  -1.4396807253131695e-02  -1.0396303351684845e-02  -9.6677355410663465e-03  -9.3993094024619386e-03  -9.0504627580471082e-03  -8.6518609157649768e-03  -8.2395983457561432e-03  -7.8236333611721807e-03  -7.4154434248106926e-03  -7.0314716365981701e-03  -6.6882487215274159e-03  -6.3965586329752574e-03  -6.1585327287848610e-03  -5.9702597967208901e-03  -5.8266370281890656e-03  -5.7246305269871888e-03  -5.6637077181031477e-03  -5.6444782277721359e-03  -5.6672504050782951e-03  -5.7315060782647548e-03  -5.8366770872811356e-03  -5.9838219264044005e-03  -6.1767746935807808e-03  -6.4210737359327334e-03  -6.7204539293315140e-03  -7.0709032183603878e-03  -7.4614309116681427e-03  -7.8780766618011169e-03  -8.3099882282272990e-03  -8.7303439219476500e-03  -9.1323757434939555e-03  -9.4841809604479469e-03  -9.8481170091044810e-03  -1.1608020280175371e-02  -1.5074158252899570e-02  -2.3210469392698854e-02  -3.1494705106557878e-02  -3.1514265558910966e-02  -3.1517501296283758e-02  -3.1518101428883782e-02  -3.1517272191664329e-02  -1.9161356432698243e-02  -1.7579485941354896e-03  -9.4175100074518382e-03  -3.1518536901401613e-02  -3.1519955327003989e-02  -3.1519834460659105e-02  -3.1519567594677972e-02  -3.1518969589144630e-02  -3.1518500446422494e-02  -3.1517219294827287e-02  -3.1486710566443935e-02  -1.9233195206226735e-02  -1.2025102371644319e-02  -1.0163798360274583e-02  -9.4670758443534762e-03  -8.9115248480068996e-03  -8.4093002895941366e-03  -7.9206712639744454e-03  -7.4491152983798964e-03  -7.0113215027155784e-03  -6.6277189949539147e-03  -6.3112598786160198e-03  -6.0607721898923500e-03  -5.8664721246518958e-03  -5.7186878258979551e-03  -5.6127665582971237e-03  -5.5487926432466533e-03  -5.5284861144330542e-03  -5.5525886977876209e-03  -5.6199177407757822e-03  -5.7286114811090846e-03  -5.8794588436982048e-03  -6.0785177512744509e-03  -6.3362229889825381e-03  -6.6626423868944426e-03  -7.0556978273188043e-03  -7.4986302274703169e-03  -7.9824760926137158e-03  -8.4891516585327877e-03  -9.0442531873944701e-03  -9.7033017865310357e-03  -1.0596663717441274e-02  -1.2911445672617230e-02  -1.9211384697320741e-02  -3.1444226014012581e-02  -3.1513867295935680e-02  -3.1517552215548868e-02  -3.1519047672757268e-02  -3.1519653108190479e-02  -3.1520185451897338e-02  -3.1520392097463469e-02  -3.1519245177780375e-02  -7.1383270390665866e-03  -1.5760606899915649e-02  -3.1520665924837973e-02  -3.1520069439666960e-02  -3.1520358396919995e-02  -3.1520389119255157e-02  -3.1520204886359968e-02  -3.1519830914664072e-02  -3.1518935724668663e-02  -3.1517694572419173e-02  -3.1509551742919563e-02  -2.4614829992006482e-02  -1.3785313603124148e-02  -1.0201198712455719e-02  -9.2213190140426147e-03  -8.6003347004641670e-03  -8.0263755688229840e-03  -7.4813464466500952e-03  -6.9781049315525250e-03  -6.5456767717813258e-03  -6.2033046749801601e-03  -5.9435861549212033e-03  -5.7466845380214019e-03  -5.5960476451386567e-03  -5.4855331665702740e-03  -5.4173393552636112e-03  -5.3954943144848035e-03  -5.4215922845974500e-03  -5.4932801663586644e-03  -5.6058184344989223e-03  -5.7585123264499612e-03  -5.9599321308394576e-03  -6.2282544084893430e-03  -6.5838795509922145e-03  -7.0313084080791703e-03  -7.5305546030510493e-03  -8.1037012382186111e-03  -8.6995124537285629e-03  -9.5428985538337178e-03  -1.1202939048839823e-02  -1.4497617519597253e-02  -2.3024086453457399e-02  -3.1506510350846763e-02  -3.1516495635408030e-02  -3.1518795292604145e-02  -3.1519902729348070e-02  -3.1520122706063525e-02  -3.1520330652909073e-02  -3.1520220364742370e-02  -3.1519885057131561e-02  -3.1519786599453557e-02  -1.5759523010698068e-02  -1.8326469825236513e-02  -3.1541012651674374e-02  -3.1521724492690716e-02  -3.1521276573004672e-02  -3.1520737586036657e-02  -3.1520505049297917e-02  -3.1520442342039219e-02  -3.1520144017573394e-02  -3.1518975829482460e-02  -3.1517441772707502e-02  -3.1511912888391828e-02  -3.0470431515697304e-02  -1.5588738052357838e-02  -1.0290914808980365e-02  -8.9288133471686331e-03  -8.1600250741345800e-03  -7.5202698534186400e-03  -6.9306938501473526e-03  -6.4350757402942957e-03  -6.0677900205041435e-03  -5.8059618643614757e-03  -5.6126025087181435e-03  -5.4609110909175232e-03  -5.3440059657363769e-03  -5.2693515231774894e-03  -5.2452275493796094e-03  -5.2744454280941357e-03  -5.3531303005773627e-03  -5.4707296999146580e-03  -5.6224561451305236e-03  -5.8198538713939056e-03  -6.0928485968453003e-03  -6.4762540202387446e-03  -7.0089548180637083e-03  -7.5800812174111332e-03  -8.3031606191488923e-03  -9.1808042364279353e-03  -1.1664064014314001e-02  -1.6355707472051336e-02  -2.7504500310844615e-02  -3.1512242316102973e-02  -3.1518054774762723e-02  -3.1519619501708250e-02  -3.1520024193008853e-02  -3.1520179617050989e-02  -3.1520533087374902e-02  -3.1521094587625732e-02  -3.1521200701639385e-02  -3.1522011265084145e-02  -3.1811935555700097e-02  -1.6625295701160479e-02  -2.8533042213582546e-02  -4.6138640698651791e-02  -3.5625032378804510e-02  -3.1522887426573852e-02  -3.1521351638764052e-02  -3.1521017637396939e-02  -3.1520599073080059e-02  -3.1520455031773184e-02  -3.1520177446954664e-02  -3.1519200880674149e-02  -3.1518237656597559e-02  -3.1516974201083056e-02  -3.1485058257150089e-02  -1.9094872647970849e-02  -1.1372795705295209e-02  -8.7047095131323610e-03  -7.6938565883040823e-03  -6.9127170916035438e-03  -6.3083654630059910e-03  -5.9144674052882895e-03  -5.6582714360637791e-03  -5.4759368533263859e-03  -5.3238713457583993e-03  -5.1955407799114369e-03  -5.1102083023902055e-03  -5.0826652076482477e-03  -5.1164602887723816e-03  -5.2083870660189369e-03  -5.3361733102998800e-03  -5.4858270470255896e-03  -5.6746666803481139e-03  -5.9483554982361483e-03  -6.3663168954506012e-03  -7.0763977002594857e-03  -7.8599694268833339e-03  -9.4169848881792886e-03  -1.2433451959455258e-02  -1.8965353466399396e-02  -3.1434340587958437e-02  -3.1515219357292734e-02  -3.1518285190202597e-02  -3.1520080277463176e-02  -3.1520152475193311e-02  -3.1520329088315258e-02  -3.1520831566959957e-02  -3.1521331129606305e-02  -3.1521468606140988e-02  -3.1523538801939456e-02  -3.7739170857461278e-02  -4.7930760084665985e-02  -2.5075473298577247e-02  -3.5080404072979084e-02  -6.0546890470133424e-02  -4.6019539586709242e-02  -3.5288390897155880e-02  -3.1522656210368753e-02  -3.1521753138444693e-02  -3.1521079316695039e-02  -3.1520645570944854e-02  -3.1520395796576631e-02  -3.1520193452218494e-02  -3.1519697736235294e-02  -3.1518883654982774e-02  -3.1516759190558581e-02  -3.1507900810123932e-02  -2.6602177739077262e-02  -1.5725852164176237e-02  -1.0375002332814369e-02  -7.8687094502202428e-03  -6.6735720781188048e-03  -6.0652058095689047e-03  -5.7175817290956790e-03  -5.4968093061002424e-03  -5.3139712266677798e-03  -5.1517561015531474e-03  -5.0453956576730161e-03  -5.0128524979222624e-03  -5.0554679631542431e-03  -5.1790916374752343e-03  -5.3460054998279360e-03  -5.5360848010346086e-03  -5.7946779995366356e-03  -6.2114699271372557e-03  -6.9517720248647883e-03  -8.7047967734627842e-03  -1.1292334592223677e-02  -1.5548269825014307e-02  -2.5139673189361424e-02  -3.1501129673336556e-02  -3.1515785082463631e-02  -3.1518974145839609e-02  -3.1520144038126384e-02  -3.1520229933312244e-02  -3.1520499259294232e-02  -3.1520855270320225e-02  -3.1521247260007636e-02  -3.1521448944257888e-02  -3.1523511976698289e-02  -3.6357243546751440e-02  -4.6458386489294318e-02  -6.0499453509092319e-02  -3.3666356988498854e-02  -3.4014057755891523e-02  -6.2913802197342911e-02  -5.0483489291727586e-02  -3.9846177060481817e-02  -3.2802274077494330e-02  -3.1522570913087161e-02  -3.1521657247016312e-02  -3.1521189425385107e-02  -3.1520646722539715e-02  -3.1520354958137840e-02  -3.1520313176907143e-02  -3.1520041378037364e-02  -3.1518601338933500e-02  -3.1517857852014344e-02  -3.1516608630307114e-02  -3.1504901834388289e-02  -2.8239424871978794e-02  -1.9378478553816032e-02  -1.4289337709187305e-02  -1.1659130664567394e-02  -1.0089320709767494e-02  -9.1184922775480702e-03  -8.4345190758334139e-03  -7.9638423439021451e-03  -7.7301281537661059e-03  -7.6774692412965176e-03  -7.7857640776033566e-03  -8.1079443573738655e-03  -8.5795182966655181e-03  -9.2019442178962376e-03  -1.0168128468752091e-02  -1.1701963402482132e-02  -1.4204433685267243e-02  -1.8941988735471382e-02  -2.7385255645220433e-02  -3.1494637862387043e-02  -3.1516169463867795e-02  -3.1517684009481857e-02  -3.1518868867455641e-02  -3.1520074944429828e-02  -3.1520225413894536e-02  -3.1520615656852886e-02  -3.1520946298197426e-02  -3.1521284099092842e-02  -3.1521928312516045e-02  -3.1522571207189223e-02  -3.3329011314269505e-02  -3.9793076413193983e-02  -4.9833231057378871e-02  -6.2143438188147222e-02  -3.5179881513366665e-02  -2.5773093174886418e-02  -5.2483081505788919e-02  -4.5938852270395208e-02  -3.9539480261779544e-02  -3.4225507811320596e-02  -3.1525458797084495e-02  -3.1522609371641683e-02  -3.1521587441874215e-02  -3.1521229702852219e-02  -3.1520656619097129e-02  -3.1520354106385387e-02  -3.1520377830893155e-02  -3.1520216548146247e-02  -3.1519322597542143e-02  -3.1518681006815874e-02  -3.1518202946017676e-02  -3.1516093343243227e-02  -3.1514435683483201e-02  -3.1511454475681204e-02  -3.1499782356358474e-02  -3.1474809391642267e-02  -3.1408253869847712e-02  -3.0985801233256317e-02  -2.9816446757751903e-02  -2.9009448904577861e-02  -2.8750545292858146e-02  -2.8962266373698652e-02  -2.9716800668072481e-02  -3.0887891137474394e-02  -3.1394180553355071e-02  -3.1474351672511856e-02  -3.1499943609958343e-02  -3.1508233345579457e-02  -3.1512215619582291e-02  -3.1518266973466796e-02  -3.1517747918751934e-02  -3.1518687875047101e-02  -3.1520257733906168e-02  -3.1520125177854713e-02  -3.1520185693444565e-02  -3.1520578383913367e-02  -3.1521095990958509e-02  -3.1521383474420427e-02  -3.1521777800395674e-02  -3.1522670430491798e-02  -3.1526876829371803e-02  -3.4121088045977202e-02  -3.8784074740546869e-02  -4.4794837306387322e-02  -5.1203801258418606e-02  -2.9053068565868846e-02  -1.6698180159633706e-02  -3.6184256729304587e-02  -3.5935832373200180e-02  -3.4728691839582243e-02  -3.2988092479997837e-02  -3.1531102035781307e-02  -3.1523252235659667e-02  -3.1522097044728130e-02  -3.1521689874598219e-02  -3.1521243333129924e-02  -3.1520701844834874e-02  -3.1520370827940035e-02  -3.1520376651939477e-02  -3.1520444221778604e-02  -3.1520254990157925e-02  -3.1519708598182934e-02  -3.1518924669459658e-02  -3.1518833721596071e-02  -3.1519117395527131e-02  -3.1518870636672233e-02  -3.1518149882433753e-02  -3.1517430419057225e-02  -3.1517899377150965e-02  -3.1518614667798782e-02  -3.1517929775111447e-02  -3.1517569337004177e-02  -3.1517718591872114e-02  -3.1518264623725971e-02  -3.1518686684164673e-02  -3.1517716915468702e-02  -3.1517612598982996e-02  -