<?xml version="1.0"?>
<VTKFile type="UnstructuredGrid"  version="0.1"  >
<UnstructuredGrid>
<Piece  NumberOfPoints="2601" NumberOfCells="5000">
<Points>
<DataArray  type="Float64"  NumberOfComponents="3"  format="ascii">0 0 0  0.03 0 0  0.06 0 0  0.09 0 0  0.12 0 0  0.15 0 0  0.18 0 0  0.21 0 0  0.24 0 0  0.27 0 0  0.3 0 0  0.33 0 0  0.36 0 0  0.39 0 0  0.42 0 0  0.45 0 0  0.48 0 0  0.51 0 0  0.54 0 0  0.57 0 0  0.6 0 0  0.63 0 0  0.66 0 0  0.6899999999999999 0 0  0.72 0 0  0.75 0 0  0.78 0 0  0.8100000000000001 0 0  0.84 0 0  0.87 0 0  0.9 0 0  0.93 0 0  0.96 0 0  0.99 0 0  1.02 0 0  1.05 0 0  1.08 0 0  1.11 0 0  1.14 0 0  1.17 0 0  1.2 0 0  1.23 0 0  1.26 0 0  1.29 0 0  1.32 0 0  1.35 0 0  1.38 0 0  1.41 0 0  1.44 0 0  1.47 0 0  1.5 0 0  0 0.02 0  0.03 0.02 0  0.06 0.02 0  0.09 0.02 0  0.12 0.02 0  0.15 0.02 0  0.18 0.02 0  0.21 0.02 0  0.24 0.02 0  0.27 0.02 0  0.3 0.02 0  0.33 0.02 0  0.36 0.02 0  0.39 0.02 0  0.42 0.02 0  0.45 0.02 0  0.48 0.02 0  0.51 0.02 0  0.54 0.02 0  0.57 0.02 0  0.6 0.02 0  0.63 0.02 0  0.66 0.02 0  0.6899999999999999 0.02 0  0.72 0.02 0  0.75 0.02 0  0.78 0.02 0  0.8100000000000001 0.02 0  0.84 0.02 0  0.87 0.02 0  0.9 0.02 0  0.93 0.02 0  0.96 0.02 0  0.99 0.02 0  1.02 0.02 0  1.05 0.02 0  1.08 0.02 0  1.11 0.02 0  1.14 0.02 0  1.17 0.02 0  1.2 0.02 0  1.23 0.02 0  1.26 0.02 0  1.29 0.02 0  1.32 0.02 0  1.35 0.02 0  1.38 0.02 0  1.41 0.02 0  1.44 0.02 0  1.47 0.02 0  1.5 0.02 0  0 0.04 0  0.03 0.04 0  0.06 0.04 0  0.09 0.04 0  0.12 0.04 0  0.15 0.04 0  0.18 0.04 0  0.21 0.04 0  0.24 0.04 0  0.27 0.04 0  0.3 0.04 0  0.33 0.04 0  0.36 0.04 0  0.39 0.04 0  0.42 0.04 0  0.45 0.04 0  0.48 0.04 0  0.51 0.04 0  0.54 0.04 0  0.57 0.04 0  0.6 0.04 0  0.63 0.04 0  0.66 0.04 0  0.6899999999999999 0.04 0  0.72 0.04 0  0.75 0.04 0  0.78 0.04 0  0.8100000000000001 0.04 0  0.84 0.04 0  0.87 0.04 0  0.9 0.04 0  0.93 0.04 0  0.96 0.04 0  0.99 0.04 0  1.02 0.04 0  1.05 0.04 0  1.08 0.04 0  1.11 0.04 0  1.14 0.04 0  1.17 0.04 0  1.2 0.04 0  1.23 0.04 0  1.26 0.04 0  1.29 0.04 0  1.32 0.04 0  1.35 0.04 0  1.38 0.04 0  1.41 0.04 0  1.44 0.04 0  1.47 0.04 0  1.5 0.04 0  0 0.06 0  0.03 0.06 0  0.06 0.06 0  0.09 0.06 0  0.12 0.06 0  0.15 0.06 0  0.18 0.06 0  0.21 0.06 0  0.24 0.06 0  0.27 0.06 0  0.3 0.06 0  0.33 0.06 0  0.36 0.06 0  0.39 0.06 0  0.42 0.06 0  0.45 0.06 0  0.48 0.06 0  0.51 0.06 0  0.54 0.06 0  0.57 0.06 0  0.6 0.06 0  0.63 0.06 0  0.66 0.06 0  0.6899999999999999 0.06 0  0.72 0.06 0  0.75 0.06 0  0.78 0.06 0  0.8100000000000001 0.06 0  0.84 0.06 0  0.87 0.06 0  0.9 0.06 0  0.93 0.06 0  0.96 0.06 0  0.99 0.06 0  1.02 0.06 0  1.05 0.06 0  1.08 0.06 0  1.11 0.06 0  1.14 0.06 0  1.17 0.06 0  1.2 0.06 0  1.23 0.06 0  1.26 0.06 0  1.29 0.06 0  1.32 0.06 0  1.35 0.06 0  1.38 0.06 0  1.41 0.06 0  1.44 0.06 0  1.47 0.06 0  1.5 0.06 0  0 0.08 0  0.03 0.08 0  0.06 0.08 0  0.09 0.08 0  0.12 0.08 0  0.15 0.08 0  0.18 0.08 0  0.21 0.08 0  0.24 0.08 0  0.27 0.08 0  0.3 0.08 0  0.33 0.08 0  0.36 0.08 0  0.39 0.08 0  0.42 0.08 0  0.45 0.08 0  0.48 0.08 0  0.51 0.08 0  0.54 0.08 0  0.57 0.08 0  0.6 0.08 0  0.63 0.08 0  0.66 0.08 0  0.6899999999999999 0.08 0  0.72 0.08 0  0.75 0.08 0  0.78 0.08 0  0.8100000000000001 0.08 0  0.84 0.08 0  0.87 0.08 0  0.9 0.08 0  0.93 0.08 0  0.96 0.08 0  0.99 0.08 0  1.02 0.08 0  1.05 0.08 0  1.08 0.08 0  1.11 0.08 0  1.14 0.08 0  1.17 0.08 0  1.2 0.08 0  1.23 0.08 0  1.26 0.08 0  1.29 0.08 0  1.32 0.08 0  1.35 0.08 0  1.38 0.08 0  1.41 0.08 0  1.44 0.08 0  1.47 0.08 0  1.5 0.08 0  0 0.1 0  0.03 0.1 0  0.06 0.1 0  0.09 0.1 0  0.12 0.1 0  0.15 0.1 0  0.18 0.1 0  0.21 0.1 0  0.24 0.1 0  0.27 0.1 0  0.3 0.1 0  0.33 0.1 0  0.36 0.1 0  0.39 0.1 0  0.42 0.1 0  0.45 0.1 0  0.48 0.1 0  0.51 0.1 0  0.54 0.1 0  0.57 0.1 0  0.6 0.1 0  0.63 0.1 0  0.66 0.1 0  0.6899999999999999 0.1 0  0.72 0.1 0  0.75 0.1 0  0.78 0.1 0  0.8100000000000001 0.1 0  0.84 0.1 0  0.87 0.1 0  0.9 0.1 0  0.93 0.1 0  0.96 0.1 0  0.99 0.1 0  1.02 0.1 0  1.05 0.1 0  1.08 0.1 0  1.11 0.1 0  1.14 0.1 0  1.17 0.1 0  1.2 0.1 0  1.23 0.1 0  1.26 0.1 0  1.29 0.1 0  1.32 0.1 0  1.35 0.1 0  1.38 0.1 0  1.41 0.1 0  1.44 0.1 0  1.47 0.1 0  1.5 0.1 0  0 0.12 0  0.03 0.12 0  0.06 0.12 0  0.09 0.12 0  0.12 0.12 0  0.15 0.12 0  0.18 0.12 0  0.21 0.12 0  0.24 0.12 0  0.27 0.12 0  0.3 0.12 0  0.33 0.12 0  0.36 0.12 0  0.39 0.12 0  0.42 0.12 0  0.45 0.12 0  0.48 0.12 0  0.51 0.12 0  0.54 0.12 0  0.57 0.12 0  0.6 0.12 0  0.63 0.12 0  0.66 0.12 0  0.6899999999999999 0.12 0  0.72 0.12 0  0.75 0.12 0  0.78 0.12 0  0.8100000000000001 0.12 0  0.84 0.12 0  0.87 0.12 0  0.9 0.12 0  0.93 0.12 0  0.96 0.12 0  0.99 0.12 0  1.02 0.12 0  1.05 0.12 0  1.08 0.12 0  1.11 0.12 0  1.14 0.12 0  1.17 0.12 0  1.2 0.12 0  1.23 0.12 0  1.26 0.12 0  1.29 0.12 0  1.32 0.12 0  1.35 0.12 0  1.38 0.12 0  1.41 0.12 0  1.44 0.12 0  1.47 0.12 0  1.5 0.12 0  0 0.14 0  0.03 0.14 0  0.06 0.14 0  0.09 0.14 0  0.12 0.14 0  0.15 0.14 0  0.18 0.14 0  0.21 0.14 0  0.24 0.14 0  0.27 0.14 0  0.3 0.14 0  0.33 0.14 0  0.36 0.14 0  0.39 0.14 0  0.42 0.14 0  0.45 0.14 0  0.48 0.14 0  0.51 0.14 0  0.54 0.14 0  0.57 0.14 0  0.6 0.14 0  0.63 0.14 0  0.66 0.14 0  0.6899999999999999 0.14 0  0.72 0.14 0  0.75 0.14 0  0.78 0.14 0  0.8100000000000001 0.14 0  0.84 0.14 0  0.87 0.14 0  0.9 0.14 0  0.93 0.14 0  0.96 0.14 0  0.99 0.14 0  1.02 0.14 0  1.05 0.14 0  1.08 0.14 0  1.11 0.14 0  1.14 0.14 0  1.17 0.14 0  1.2 0.14 0  1.23 0.14 0  1.26 0.14 0  1.29 0.14 0  1.32 0.14 0  1.35 0.14 0  1.38 0.14 0  1.41 0.14 0  1.44 0.14 0  1.47 0.14 0  1.5 0.14 0  0 0.16 0  0.03 0.16 0  0.06 0.16 0  0.09 0.16 0  0.12 0.16 0  0.15 0.16 0  0.18 0.16 0  0.21 0.16 0  0.24 0.16 0  0.27 0.16 0  0.3 0.16 0  0.33 0.16 0  0.36 0.16 0  0.39 0.16 0  0.42 0.16 0  0.45 0.16 0  0.48 0.16 0  0.51 0.16 0  0.54 0.16 0  0.57 0.16 0  0.6 0.16 0  0.63 0.16 0  0.66 0.16 0  0.6899999999999999 0.16 0  0.72 0.16 0  0.75 0.16 0  0.78 0.16 0  0.8100000000000001 0.16 0  0.84 0.16 0  0.87 0.16 0  0.9 0.16 0  0.93 0.16 0  0.96 0.16 0  0.99 0.16 0  1.02 0.16 0  1.05 0.16 0  1.08 0.16 0  1.11 0.16 0  1.14 0.16 0  1.17 0.16 0  1.2 0.16 0  1.23 0.16 0  1.26 0.16 0  1.29 0.16 0  1.32 0.16 0  1.35 0.16 0  1.38 0.16 0  1.41 0.16 0  1.44 0.16 0  1.47 0.16 0  1.5 0.16 0  0 0.18 0  0.03 0.18 0  0.06 0.18 0  0.09 0.18 0  0.12 0.18 0  0.15 0.18 0  0.18 0.18 0  0.21 0.18 0  0.24 0.18 0  0.27 0.18 0  0.3 0.18 0  0.33 0.18 0  0.36 0.18 0  0.39 0.18 0  0.42 0.18 0  0.45 0.18 0  0.48 0.18 0  0.51 0.18 0  0.54 0.18 0  0.57 0.18 0  0.6 0.18 0  0.63 0.18 0  0.66 0.18 0  0.6899999999999999 0.18 0  0.72 0.18 0  0.75 0.18 0  0.78 0.18 0  0.8100000000000001 0.18 0  0.84 0.18 0  0.87 0.18 0  0.9 0.18 0  0.93 0.18 0  0.96 0.18 0  0.99 0.18 0  1.02 0.18 0  1.05 0.18 0  1.08 0.18 0  1.11 0.18 0  1.14 0.18 0  1.17 0.18 0  1.2 0.18 0  1.23 0.18 0  1.26 0.18 0  1.29 0.18 0  1.32 0.18 0  1.35 0.18 0  1.38 0.18 0  1.41 0.18 0  1.44 0.18 0  1.47 0.18 0  1.5 0.18 0  0 0.2 0  0.03 0.2 0  0.06 0.2 0  0.09 0.2 0  0.12 0.2 0  0.15 0.2 0  0.18 0.2 0  0.21 0.2 0  0.24 0.2 0  0.27 0.2 0  0.3 0.2 0  0.33 0.2 0  0.36 0.2 0  0.39 0.2 0  0.42 0.2 0  0.45 0.2 0  0.48 0.2 0  0.51 0.2 0  0.54 0.2 0  0.57 0.2 0  0.6 0.2 0  0.63 0.2 0  0.66 0.2 0  0.6899999999999999 0.2 0  0.72 0.2 0  0.75 0.2 0  0.78 0.2 0  0.8100000000000001 0.2 0  0.84 0.2 0  0.87 0.2 0  0.9 0.2 0  0.93 0.2 0  0.96 0.2 0  0.99 0.2 0  1.02 0.2 0  1.05 0.2 0  1.08 0.2 0  1.11 0.2 0  1.14 0.2 0  1.17 0.2 0  1.2 0.2 0  1.23 0.2 0  1.26 0.2 0  1.29 0.2 0  1.32 0.2 0  1.35 0.2 0  1.38 0.2 0  1.41 0.2 0  1.44 0.2 0  1.47 0.2 0  1.5 0.2 0  0 0.22 0  0.03 0.22 0  0.06 0.22 0  0.09 0.22 0  0.12 0.22 0  0.15 0.22 0  0.18 0.22 0  0.21 0.22 0  0.24 0.22 0  0.27 0.22 0  0.3 0.22 0  0.33 0.22 0  0.36 0.22 0  0.39 0.22 0  0.42 0.22 0  0.45 0.22 0  0.48 0.22 0  0.51 0.22 0  0.54 0.22 0  0.57 0.22 0  0.6 0.22 0  0.63 0.22 0  0.66 0.22 0  0.6899999999999999 0.22 0  0.72 0.22 0  0.75 0.22 0  0.78 0.22 0  0.8100000000000001 0.22 0  0.84 0.22 0  0.87 0.22 0  0.9 0.22 0  0.93 0.22 0  0.96 0.22 0  0.99 0.22 0  1.02 0.22 0  1.05 0.22 0  1.08 0.22 0  1.11 0.22 0  1.14 0.22 0  1.17 0.22 0  1.2 0.22 0  1.23 0.22 0  1.26 0.22 0  1.29 0.22 0  1.32 0.22 0  1.35 0.22 0  1.38 0.22 0  1.41 0.22 0  1.44 0.22 0  1.47 0.22 0  1.5 0.22 0  0 0.24 0  0.03 0.24 0  0.06 0.24 0  0.09 0.24 0  0.12 0.24 0  0.15 0.24 0  0.18 0.24 0  0.21 0.24 0  0.24 0.24 0  0.27 0.24 0  0.3 0.24 0  0.33 0.24 0  0.36 0.24 0  0.39 0.24 0  0.42 0.24 0  0.45 0.24 0  0.48 0.24 0  0.51 0.24 0  0.54 0.24 0  0.57 0.24 0  0.6 0.24 0  0.63 0.24 0  0.66 0.24 0  0.6899999999999999 0.24 0  0.72 0.24 0  0.75 0.24 0  0.78 0.24 0  0.8100000000000001 0.24 0  0.84 0.24 0  0.87 0.24 0  0.9 0.24 0  0.93 0.24 0  0.96 0.24 0  0.99 0.24 0  1.02 0.24 0  1.05 0.24 0  1.08 0.24 0  1.11 0.24 0  1.14 0.24 0  1.17 0.24 0  1.2 0.24 0  1.23 0.24 0  1.26 0.24 0  1.29 0.24 0  1.32 0.24 0  1.35 0.24 0  1.38 0.24 0  1.41 0.24 0  1.44 0.24 0  1.47 0.24 0  1.5 0.24 0  0 0.26 0  0.03 0.26 0  0.06 0.26 0  0.09 0.26 0  0.12 0.26 0  0.15 0.26 0  0.18 0.26 0  0.21 0.26 0  0.24 0.26 0  0.27 0.26 0  0.3 0.26 0  0.33 0.26 0  0.36 0.26 0  0.39 0.26 0  0.42 0.26 0  0.45 0.26 0  0.48 0.26 0  0.51 0.26 0  0.54 0.26 0  0.57 0.26 0  0.6 0.26 0  0.63 0.26 0  0.66 0.26 0  0.6899999999999999 0.26 0  0.72 0.26 0  0.75 0.26 0  0.78 0.26 0  0.8100000000000001 0.26 0  0.84 0.26 0  0.87 0.26 0  0.9 0.26 0  0.93 0.26 0  0.96 0.26 0  0.99 0.26 0  1.02 0.26 0  1.05 0.26 0  1.08 0.26 0  1.11 0.26 0  1.14 0.26 0  1.17 0.26 0  1.2 0.26 0  1.23 0.26 0  1.26 0.26 0  1.29 0.26 0  1.32 0.26 0  1.35 0.26 0  1.38 0.26 0  1.41 0.26 0  1.44 0.26 0  1.47 0.26 0  1.5 0.26 0  0 0.28 0  0.03 0.28 0  0.06 0.28 0  0.09 0.28 0  0.12 0.28 0  0.15 0.28 0  0.18 0.28 0  0.21 0.28 0  0.24 0.28 0  0.27 0.28 0  0.3 0.28 0  0.33 0.28 0  0.36 0.28 0  0.39 0.28 0  0.42 0.28 0  0.45 0.28 0  0.48 0.28 0  0.51 0.28 0  0.54 0.28 0  0.57 0.28 0  0.6 0.28 0  0.63 0.28 0  0.66 0.28 0  0.6899999999999999 0.28 0  0.72 0.28 0  0.75 0.28 0  0.78 0.28 0  0.8100000000000001 0.28 0  0.84 0.28 0  0.87 0.28 0  0.9 0.28 0  0.93 0.28 0  0.96 0.28 0  0.99 0.28 0  1.02 0.28
[...]
<PointData  Scalars="sensitivity"> 
<DataArray  type="Float64"  Name="sensitivity"  format="ascii">-7.4933057663631701e-07  -1.3036172884524056e-05  -5.3762923436211339e-05  -1.3734042818112048e-04  -2.6705570122859639e-04  -4.2929303899920163e-04  -6.0061947983247751e-04  -7.5701316184026760e-04  -8.8050656784699444e-04  -9.6394399740424793e-04  -1.0116176133908514e-03  -1.0341689836304540e-03  -1.0416046887771551e-03  -1.0395291110176586e-03  -1.0299423008069465e-03  -1.0142757094558621e-03  -9.9524268795486400e-04  -9.7618417648419992e-04  -9.5948465635707582e-04  -9.4593096815767446e-04  -9.3524350525450706e-04  -9.2693752965921641e-04  -9.2080167505856228e-04  -9.1688030738577809e-04  -9.1524397446960846e-04  -9.1583970542847518e-04  -9.1852737089019381e-04  -9.2326361990175212e-04  -9.3032475876214410e-04  -9.4038872759203015e-04  -9.5424048939699577e-04  -9.7197458067291602e-04  -9.9201574692428475e-04  -1.0109654966233539e-03  -1.0253201027674299e-03  -1.0341708494377314e-03  -1.0396247999421933e-03  -1.0433737982472712e-03  -1.0423131888980478e-03  -1.0272069052116757e-03  -9.8602006567291870e-04  -9.1012493753914116e-04  -7.9862218361582906e-04  -6.5762575051725967e-04  -4.9789706917481016e-04  -3.3512849081421020e-04  -1.9058943010425439e-04  -8.5240891823877378e-05  -2.6808418291129173e-05  -3.5537802996774612e-06  -1.1134421118627923e-08  -6.8579515966364152e-06  -6.7517817998556366e-05  -2.6934074528578249e-04  -7.0904805942841856e-04  -1.4216650221560156e-03  -2.3433617317871851e-03  -3.3447330624965612e-03  -4.2836119065098660e-03  -5.0450005247930137e-03  -5.5725545043550364e-03  -5.8804355436771118e-03  -6.0290057951056658e-03  -6.0816954193643772e-03  -6.0766487767805726e-03  -6.0270005385336138e-03  -5.9392109589187858e-03  -5.8275791474277153e-03  -5.7124791414305135e-03  -5.6100265809191953e-03  -5.5264659981568553e-03  -5.4605629253667628e-03  -5.4090851300822411e-03  -5.3703493644544223e-03  -5.3445038706991573e-03  -5.3321146769574317e-03  -5.3330269215075103e-03  -5.3463562565001892e-03  -5.3714760436108571e-03  -5.4094389368273543e-03  -5.4638773128847812e-03  -5.5399555578339423e-03  -5.6401789786769876e-03  -5.7580189413436169e-03  -5.8746845241465029e-03  -5.9669777767508312e-03  -6.0249321106340637e-03  -6.0597660650884497e-03  -6.0865914102892224e-03  -6.0957496297923642e-03  -6.0391554308270963e-03  -5.8449328537713684e-03  -5.4538859120080180e-03  -4.8511671948092069e-03  -4.0664581555112092e-03  -3.1565588960967839e-03  -2.2038058081750140e-03  -1.3228250130908779e-03  -6.4130818899044845e-04  -2.3202310204946196e-04  -5.3104764376074966e-05  -2.3796047889363569e-06  -1.9893050546086286e-05  -1.3285995942310114e-04  -4.0823196941512072e-04  -9.9940329982894623e-04  -1.9417367221959327e-03  -3.1395523259342582e-03  -4.4264603426308093e-03  -5.6239364711160979e-03  -6.5821609191730347e-03  -7.2252556255282263e-03  -7.5777565663835813e-03  -7.7310127588495594e-03  -7.7760970375703002e-03  -7.7611906560740738e-03  -7.6943253931943314e-03  -7.5754983936542081e-03  -7.4222918974614742e-03  -7.2653457897839582e-03  -7.1285720799559096e-03  -7.0195600973722155e-03  -6.9345028721068168e-03  -6.8675934004379709e-03  -6.8164210662711618e-03  -6.7817753913455240e-03  -6.7649382628271896e-03  -6.7657683761999099e-03  -6.7826875947427064e-03  -6.8141527317811630e-03  -6.8608976721667801e-03  -6.9278117370959709e-03  -7.0233436262811064e-03  -7.1539882332296969e-03  -7.3138840825498642e-03  -7.4765249363920924e-03  -7.6038227613713701e-03  -7.6773451079206832e-03  -7.7183591557204124e-03  -7.7608637363459545e-03  -7.8018018408714347e-03  -7.7773148805909678e-03  -7.5827187319382674e-03  -7.1286778639101898e-03  -6.3942825265354952e-03  -5.4227811440146620e-03  -4.2840532287884026e-03  -3.0712113038831425e-03  -1.9140297001158147e-03  -9.7635119868298779e-04  -3.8566123151292345e-04  -1.1965037582049580e-04  -1.1988520310864687e-05  -3.2733544462964602e-05  -2.2155787651358480e-04  -5.9783556284493690e-04  -1.3316633576181945e-03  -2.4134647814341528e-03  -3.7096533344762881e-03  -5.0456746387209823e-03  -6.2485504575522828e-03  -7.1687256308954148e-03  -7.7307104079333503e-03  -7.9805073392684722e-03  -8.0439005498107938e-03  -8.0327983109918632e-03  -7.9920751485391840e-03  -7.9105761704295462e-03  -7.7722683058400249e-03  -7.5948599196369575e-03  -7.4181221897721816e-03  -7.2707135340407663e-03  -7.1576310325599593e-03  -7.0700456967001191e-03  -6.9993312531928982e-03  -6.9434362976062173e-03  -6.9049214109138642e-03  -6.8863216059078976e-03  -6.8875931398480377e-03  -6.9063676505845255e-03  -6.9398514849465468e-03  -6.9876759214748145e-03  -7.0549169971835775e-03  -7.1528093133955062e-03  -7.2931202716256935e-03  -7.4741815071916991e-03  -7.6654150695847616e-03  -7.8132087432068956e-03  -7.8874556796110270e-03  -7.9226662262789436e-03  -7.9812745947282129e-03  -8.0761057164362958e-03  -8.1364959545181508e-03  -8.0311386729596899e-03  -7.6421985333410478e-03  -6.9444514508942177e-03  -5.9977017795917846e-03  -4.8750309698418291e-03  -3.6451622731262343e-03  -2.4075826080293466e-03  -1.3179612427005011e-03  -5.5931859303586017e-04  -1.9274523447797683e-04  -2.5175237768888798e-05  -3.2770960082226590e-05  -3.3474597255617726e-04  -9.8422942172195910e-04  -2.0555551476346386e-03  -3.3644010930869201e-03  -4.7438964628526183e-03  -6.0874825412979717e-03  -7.2294358202113409e-03  -7.9992083108534253e-03  -8.3537280542959422e-03  -8.3968756734807467e-03  -8.2996035007320192e-03  -8.1914259860145205e-03  -8.1054197735489098e-03  -7.9996573889575869e-03  -7.8337190798800100e-03  -7.6258532550678619e-03  -7.4279343767478315e-03  -7.2725030204282368e-03  -7.1586631579259484e-03  -7.0700498967137849e-03  -6.9948327786310887e-03  -6.9324968252021685e-03  -6.8886459781443265e-03  -6.8675824150024045e-03  -6.8693007404626956e-03  -6.8904366596193580e-03  -6.9266402509256756e-03  -6.9758513005084453e-03  -7.0426319393268140e-03  -7.1408925009504359e-03  -7.2889732728656552e-03  -7.4921867632247608e-03  -7.7183414161204490e-03  -7.8945316827299574e-03  -7.9709045907448359e-03  -7.9992635688840505e-03  -8.0846537829527051e-03  -8.2649069347439114e-03  -8.4665936089048811e-03  -8.5249004179854433e-03  -8.2804294309162425e-03  -7.6958489536674592e-03  -6.8688936184739735e-03  -5.8801402309741806e-03  -4.7194164260929549e-03  -3.4424948402979002e-03  -2.0944330326840275e-03  -9.3278192835727434e-04  -2.5982822402272179e-04  -3.0248744399137294e-05  -2.7758505460855796e-05  -5.7910203499451354e-04  -2.3440156981819741e-03  -4.8568507055446637e-03  -6.6478330176216001e-03  -7.5435484491654286e-03  -8.2511743833650012e-03  -9.0340616395086538e-03  -9.4844938990348831e-03  -9.3827291136294212e-03  -8.9997875637985621e-03  -8.6204329715042598e-03  -8.3617554704674933e-03  -8.2105441443466043e-03  -8.0711192710708514e-03  -7.8678456196996788e-03  -7.6222336971443197e-03  -7.4020439987907008e-03  -7.2413461881465852e-03  -7.1291251765032808e-03  -7.0391352310086178e-03  -6.9566740122374250e-03  -6.8846584849727582e-03  -6.8332364177126305e-03  -6.8087699474439411e-03  -6.8110012388597927e-03  -6.8353847942952475e-03  -6.8758954029680824e-03  -6.9282967388319293e-03  -6.9958092512050979e-03  -7.0943563836467034e-03  -7.2494746219863614e-03  -7.4753252505906790e-03  -7.7419450996716295e-03  -7.9555956791928714e-03  -8.0362549796178188e-03  -8.0590488251974738e-03  -8.1909447688452083e-03  -8.5029149250601399e-03  -8.9157182853841048e-03  -9.2302375129485210e-03  -9.2534418569792127e-03  -8.9945424679932773e-03  -8.6777822616083758e-03  -8.4599554100519697e-03  -8.1322705185875935e-03  -7.2404884422756256e-03  -4.8639179672009016e-03  -1.9243331952602878e-03  -3.5839762179376821e-04  -2.0244098124456932e-05  -1.9259094151251796e-04  -3.4213146306240052e-03  -1.1431352969367200e-02  -1.6942707109350422e-02  -1.9397451934429783e-02  -1.7893844521898468e-02  -1.4963618053786954e-02  -1.3058919853765403e-02  -1.2274165494092753e-02  -1.1304958205968167e-02  -1.0077317314829760e-02  -9.1299892594820745e-03  -8.5814939212533903e-03  -8.3208007035200007e-03  -8.1448644397944265e-03  -7.9018111037234776e-03  -7.6127392114482230e-03  -7.3693178297537243e-03  -7.2054717159771809e-03  -7.0956179759074402e-03  -7.0016434181832997e-03  -6.9069959975910141e-03  -6.8206646131780220e-03  -6.7589421351558800e-03  -6.7300795029802954e-03  -6.7329160390463766e-03  -6.7615775514375974e-03  -6.8084944288967272e-03  -6.8669954401346864e-03  -6.9381216443473691e-03  -7.0385704395197366e-03  -7.2014450332926940e-03  -7.4484595639963177e-03  -7.7565509377317534e-03  -8.0164163816206016e-03  -8.1076673987138786e-03  -8.1378871180017107e-03  -8.3625164711208910e-03  -8.8861058747611871e-03  -9.6018087565574364e-03  -1.0329918937021234e-02  -1.1023015904982010e-02  -1.1878367905323726e-02  -1.3567854067040854e-02  -1.6145729906203971e-02  -1.8816323511514129e-02  -2.1130727574868328e-02  -1.8679172015788757e-02  -1.1023263279672889e-02  -1.8845906182895099e-03  -3.9467438183377014e-05  -1.7065260118030088e-03  -1.8126918126523166e-02  -3.5411808228168189e-02  -3.0404490154353862e-02  -2.8339344971377491e-02  -2.9485380013889534e-02  -2.7231487554045846e-02  -2.1510585174683190e-02  -1.7286817446228921e-02  -1.4599653740485436e-02  -1.2046261709359530e-02  -1.0093425636333128e-02  -9.0009545900336142e-03  -8.4714165856797259e-03  -8.2000014706569476e-03  -7.9241139299543253e-03  -7.6062117243677670e-03  -7.3460052122853907e-03  -7.1800338627152956e-03  -7.0691808591232027e-03  -6.9639896387784792e-03  -6.8486581999057140e-03  -6.7416327490833431e-03  -6.6665358387756144e-03  -6.6323752067417941e-03  -6.6359063809337850e-03  -6.6698495349772910e-03  -6.7255341561880191e-03  -6.7939452600133763e-03  -6.8731222503308513e-03  -6.9791524742491501e-03  -7.1541042550801529e-03  -7.4200997976895198e-03  -7.7657628683596306e-03  -8.0753864910840904e-03  -8.1886497854014393e-03  -8.2607996915925706e-03  -8.6559105050124131e-03  -9.4943887451859350e-03  -1.0696781879107536e-02  -1.2303603367189178e-02  -1.4554153220937794e-02  -1.8331166062575247e-02  -2.2604074802705345e-02  -2.6930340611432763e-02  -2.8822233333873643e-02  -2.9995038661765425e-02  -3.2060347973342854e-02  -3.2017297638761884e-02  -1.8386694016509865e-02  -4.7154867508278743e-04  -8.7816016345223756e-03  -3.7414759382074669e-02  -3.3157578619426017e-02  -2.7867721813988829e-02  -2.4511815237079067e-02  -2.7344717533834106e-02  -3.2948415854627981e-02  -3.3046758650683676e-02  -2.5000762772386342e-02  -1.8729403970271685e-02  -1.5117584545408673e-02  -1.1841315111961728e-02  -9.8243249176177706e-03  -8.8893870311748252e-03  -8.3605696855478164e-03  -7.9489004580085669e-03  -7.5981260088328530e-03  -7.3413852609095238e-03  -7.1780932072680942e-03  -7.0599494756413287e-03  -6.9315310541022421e-03  -6.7826154451679143e-03  -6.6464710443983549e-03  -6.5546292996247930e-03  -6.5141925618584229e-03  -6.5181030081446533e-03  -6.5577759837199545e-03  -6.6242096339917686e-03  -6.7065994431867240e-03  -6.7997567217084097e-03  -6.9198600345482921e-03  -7.1220243875807733e-03  -7.4191993371711231e-03  -7.8065250383245171e-03  -8.1653702358569658e-03  -8.3231730881698600e-03  -8.4731712110130575e-03  -9.1567460761037174e-03  -1.0558543298021196e-02  -1.2521827438152708e-02  -1.5703869801243137e-02  -2.1096468040722773e-02  -2.7773435385331367e-02  -3.2656111400280914e-02  -3.0640123681620935e-02  -2.8430175878420602e-02  -2.8490369150684432e-02  -3.0229404235163956e-02  -3.1977456037919474e-02  -4.5894400049287826e-02  -8.2414502788806191e-03  -1.5943858092641140e-02  -3.3023447546934107e-02  -3.2425810489513714e-02  -3.1155799726829046e-02  -2.8893796320703637e-02  -2.9480038040084706e-02  -3.5823699186229005e-02  -4.5978131163607217e-02  -4.5913383508179445e-02  -3.1492861916860425e-02  -2.0703537366656397e-02  -1.5404856290674538e-02  -1.1627423525231620e-02  -9.7676096917340208e-03  -8.9237728334059917e-03  -8.2709424647370491e-03  -7.7538385930138471e-03  -7.4346326940616554e-03  -7.2427239784157004e-03  -7.0900011658077368e-03  -6.9158759312780401e-03  -6.7163535458368510e-03  -6.5415217919321724e-03  -6.4296667901812057e-03  -6.3817611126422086e-03  -6.3851286103471291e-03  -6.4305433883612376e-03  -6.5099303320760617e-03  -6.6123154656416230e-03  -6.7318656206442999e-03  -6.8894521662449335e-03  -7.1602763086518716e-03  -7.5365171450810361e-03  -7.9628532648860512e-03  -8.3114994127231803e-03  -8.6355033793076696e-03  -9.1382219168106103e-03  -1.0562152676202533e-02  -1.3428045925898826e-02  -1.7537674712487742e-02  -2.2632349618083643e-02  -3.1620172622660841e-02  -4.1048173839714965e-02  -3.9750071403902298e-02  -3.3416685079678606e-02  -2.9908929371613109e-02  -3.0705254274347317e-02  -3.2840629350637744e-02  -3.3726865996693632e-02  -3.3444657244618037e-02  -1.8252448318339443e-02  -1.9735614739437336e-02  -3.3858113581230545e-02  -3.1452701633581728e-02  -3.2351602257740114e-02  -3.2592846661592595e-02  -3.3004347642200837e-02  -3.6017452481841190e-02  -4.2500610000656448e-02  -4.9736534128156151e-02  -4.9863931720038987e-02  -3.8395448310081889e-02  -2.4469951058878350e-02  -1.5801214184058120e-02  -1.1606610614751420e-02  -9.6966863868688715e-03  -8.9502149781447941e-03  -8.3329622237051995e-03  -7.8947736856189825e-03  -7.5865524568512841e-03  -7.3127415468135955e-03  -7.0156305953302271e-03  -6.7195016056386366e-03  -6.4866219015361831e-03  -6.3466632763028441e-03  -6.2865623661955182e-03  -6.2874703576346518e-03  -6.3404056368229818e-03  -6.4387320854475899e-03  -6.5742390448093931e-03  -6.7479694699871693e-03  -6.9914828201818654e-03  -7.3955377168324005e-03  -7.9645477565920501e-03  -8.3348947428588602e-03  -8.5521420626306337e-03  -9.2191765772634323e-03  -1.0887708508358766e-02  -1.4715203147147148e-02  -1.9703079895798368e-02  -2.6737233268485507e-02  -3.5993215784543613e-02  -4.4277710247561157e-02  -4.2891455135933620e-02  -3.6858277469957589e-02  -3.3544655081331837e-02  -3.2970809249583156e-02  -3.2848443950185872e-02  -3.1638752513022610e-02  -3.1499709124654870e-02  -3.4255446335108249e-02  -1.8764456034778804e-02  -2.9196559215567290e-02  -4.7695395241092821e-02  -3.7219855009167344e-02  -3.2978573108553448e-02  -3.2007932247356409e-02  -3.2247632361561689e-02  -3.4097632240376652e-02  -3.6854952505008143e-02  -3.9380555248851166e-02  -3.9591259358165001e-02  -3.7894125144897275e-02  -3.6669459734792111e-02  -2.8287085754800784e-02  -1.6988297601605949e-02  -1.1650605959843284e-02  -9.8522582711366713e-03  -9.2394890729864104e-03  -8.6932114382722581e-03  -8.2549555212537325e-03  -7.8653719457040857e-03  -7.3889543164367402e-03  -6.9260195781868771e-03  -6.6077118651457602e-03  -6.4306833728598710e-03  -6.3502703398177545e-03  -6.3454334971683821e-03  -6.4091942383379882e-03  -6.5309222888336365e-03  -6.7023084637864725e-03  -6.9386367702662984e-03  -7.2983592946535142e-03  -7.8766059144820023e-03  -8.7239821660801738e-03  -9.3598948090118528e-03  -9.3930125406503640e-03  -9.4181841405196511e-03  -1.4987005148776439e-02  -2.0839275050671853e-02  -2.8185193374595945e-02  -3.2103902532109610e-02  -3.7925811207001746e-02  -4.0995492297869349e-02  -3.7043894254252203e-02  -3.3792220106345347e-02  -3.2502536294370277e-02  -3.2346494794308893e-02  -3.2274973172310650e-02  -3.3632089863395262e-02  -3.8912175057384590e-02  -4.8996074949740329e-02  -2.6187971647522262e-02  -3.5516749717020166e-02  -6.1230375889577575e-02  -4.6975803442469696e-02  -3.7277373487841096e-02  -3.3650465568243172e-02  -3.1948853261877415e-02  -3.1891968035256818e-02  -3.3457197199815006e-02  -3.4619260669068105e-02  -3.4047225315168128e-02  -3.0434068611984850e-02  -2.7526647451290624e-02  -3.1030784973760783e-02  -3.3662365559469901e-02  -2.1415146717402071e-02  -1.4227124512464965e-02  -1.2269888050807674e-02  -1.0980772900507042e-02  -9.6408889148608904e-03  -8.8178446241226668e-03  -8.2021665044734494e-03  -7.5785892778231726e-03  -7.1470811750917948e-03  -6.9313915820078337e-03  -6.8474762355905045e-03  -6.8579761391442170e-03  -6.9505105344706657e-03  -7.1061116295007372e-03  -7.3181469194459189e-03  -7.6253292083004326e-03  -8.1438639767117300e-03  -9.0156646979911055e-03  -1.0272794058968401e-02  -1.1701363022243850e-02  -1.3306068944436726e-02  -1.6254494627538828e-02  -2.1039619800975736e-02  -2.8693363216280500e-02  -2.9832087665306952e-02  -3.2780451618427069e-02  -3.4110948232266916e-02  -3.3634537586367787e-02  -3.3126906226626465e-02  -3.2259042599801127e-02  -3.1928748075663420e-02  -3.2433336480534217e-02  -3.4014549808554354e-02  -3.8070486020128483e-02  -4.7641430836718429e-02  -6.1351306720920984e-02  -3.4179504330148380e-02  -3.4459386038565208e-02  -6.3375900534421659e-02  -5.0872504999688671e-02  -4.1087937271782990e-02  -3.6008860086273894e-02  -3.4075416942365488e-02  -3.2151817621630434e-02  -3.1821063620436782e-02  -3.2542006785227673e-02  -3.2467612607307822e-02  -3.0704897551612043e-02  -2.6371907456673841e-02  -2.2973267955938539e-02  -2.7039095557022674e-02  -3.7557963098240145e-02  -3.2072622401109155e-02  -2.2922137242466830e-02  -1.8921735912200942e-02  -1.6066765624384270e-02  -1.3432096086145403e-02  -1.1873317609647506e-02  -1.1139200772922476e-02  -1.0574923478544614e-02  -1.0092156947019310e-02  -9.8327110535016051e-03  -9.8352963641427822e-03  -1.0001907766039562e-02  -1.0248959989051003e-02  -1.0636414844630357e-02  -1.1382126525316135e-02  -1.2776778110781361e-02  -1.4927077090051737e-02  -1.7409519212896230e-02  -1.9494856415673344e-02  -2.1988968291033098e-02  -2.7356906318771870e-02  -3.0747172513093043e-02  -3.0734327421029915e-02  -3.1080480981830940e-02  -3.0049865489295852e-02  -3.0608337096933256e-02  -3.1580508448830244e-02  -3.1912610808298554e-02  -3.1970582777377320e-02  -3.2644237977854963e-02  -3.4104018348173566e-02  -3.6087297754981242e-02  -4.1092158074262315e-02  -5.0364978286436296e-02  -6.2688159674213331e-02  -3.5611311058351559e-02  -2.6624496726687000e-02  -5.3063619225003092e-02  -4.6267081773245247e-02  -4.0446273647126163e-02  -3.7004717472088042e-02  -3.5657891108010216e-02  -3.4029941245510488e-02  -3.2069103853746950e-02  -3.1476765870592976e-02  -3.1413213981333780e-02  -3.0706754603063623e-02  -2.8827744701290747e-02  -2.5237628429817652e-02  -2.2202201649983409e-02  -2.4600022354784163e-02  -3.3043510478287172e-02  -3.8031438593467873e-02  -3.6663781871790618e-02  -3.4297000373272095e-02  -2.9112220389390951e-02  -2.3482049401422424e-02  -2.1441266801236380e-02  -2.1486360741888370e-02  -2.1276662539727466e-02  -2.0516488865027851e-02  -2.0068713551295067e-02  -2.0175733657020987e-02  -2.0524572947811303e-02  -2.1057919697319356e-02  -2.2360555985254996e-02  -2.5351542754529190e-02  -3.0237918236006505e-02  -3.5054891543524078e-02  -3.6953662191269984e-02  -3.4894722626918104e-02  -3.2171156324906920e-02  -3.1822638336949920e-02  -2.9877362677268440e-02  -2.7954396957198781e-02  -2.8563758810102178e-02  -3.0052508916042608e-02  -3.1282703701870682e-02  -3.2004104192815068e-02  -3.2793086587199240e-02  -3.4159711039023960e-02  -3.5431779224721391e-02  -3.6709012223334815e-02  -3.9683961603962099e-02  -4.5012849829527427e-02  -5.1890798171066267e-02  -2.9617709445833008e-02  -1.8527908125676468e-02  -3.7213264114682669e-02  -3.6711286900613864e-02  -3.6265137870899321e-02  -3.5965693155198479e-02  -3.5958217628147680e-02  -3.5339854220505278e-02  -3.3473439974612745e-02  -3.1645650558269303e-02  -3.0702959253306437e-02  -3.0008024443389666e-02  -2.8933382705416320e-02  -2.7367662731523829e-02  -2.5254208845987551e-02  -2.3628579838189615e-02  -2.4964527531859113e-02  -3.0219547756763235e-02  -3.6706218707242506e-02  -4.1380989491452594e-02  -4.2682433258257817e-02  -3.9704201985878596e-02  -3.5557217356384403e-02  -3.3720027915703589e-02  -3.3901269524830843e-02  -3.4496910022122261e-02  -3.4783800686741986e-02  -3.4993313401057942e-02  -3.5262696464186304e-02  -3.5337858900455217e-02  -3.5105402624159357e-02  -3.5062351047684709e-02  -