<?xml version="1.0"?>
<VTKFile type="UnstructuredGrid"  version="0.1"  >
<UnstructuredGrid>
<Piece  NumberOfPoints="2601" NumberOfCells="5000">
<Points>
<DataArray  type="Float64"  NumberOfComponents="3"  format="ascii">0 0 0  0.03 0 0  0.06 0 0  0.09 0 0  0.12 0 0  0.15 0 0  0.18 0 0  0.21 0 0  0.24 0 0  0.27 0 0  0.3 0 0  0.33 0 0  0.36 0 0  0.39 0 0  0.42 0 0  0.45 0 0  0.48 0 0  0.51 0 0  0.54 0 0  0.57 0 0  0.6 0 0  0.63 0 0  0.66 0 0  0.6899999999999999 0 0  0.72 0 0  0.75 0 0  0.78 0 0  0.8100000000000001 0 0  0.84 0 0  0.87 0 0  0.9 0 0  0.93 0 0  0.96 0 0  0.99 0 0  1.02 0 0  1.05 0 0  1.08 0 0  1.11 0 0  1.14 0 0  1.17 0 0  1.2 0 0  1.23 0 0  1.26 0 0  1.29 0 0  1.32 0 0  1.35 0 0  1.38 0 0  1.41 0 0  1.44 0 0  1.47 0 0  1.5 0 0  0 0.02 0  0.03 0.02 0  0.06 0.02 0  0.09 0.02 0  0.12 0.02 0  0.15 0.02 0  0.18 0.02 0  0.21 0.02 0  0.24 0.02 0  0.27 0.02 0  0.3 0.02 0  0.33 0.02 0  0.36 0.02 0  0.39 0.02 0  0.42 0.02 0  0.45 0.02 0  0.48 0.02 0  0.51 0.02 0  0.54 0.02 0  0.57 0.02 0  0.6 0.02 0  0.63 0.02 0  0.66 0.02 0  0.6899999999999999 0.02 0  0.72 0.02 0  0.75 0.02 0  0.78 0.02 0  0.8100000000000001 0.02 0  0.84 0.02 0  0.87 0.02 0  0.9 0.02 0  0.93 0.02 0  0.96 0.02 0  0.99 0.02 0  1.02 0.02 0  1.05 0.02 0  1.08 0.02 0  1.11 0.02 0  1.14 0.02 0  1.17 0.02 0  1.2 0.02 0  1.23 0.02 0  1.26 0.02 0  1.29 0.02 0  1.32 0.02 0  1.35 0.02 0  1.38 0.02 0  1.41 0.02 0  1.44 0.02 0  1.47 0.02 0  1.5 0.02 0  0 0.04 0  0.03 0.04 0  0.06 0.04 0  0.09 0.04 0  0.12 0.04 0  0.15 0.04 0  0.18 0.04 0  0.21 0.04 0  0.24 0.04 0  0.27 0.04 0  0.3 0.04 0  0.33 0.04 0  0.36 0.04 0  0.39 0.04 0  0.42 0.04 0  0.45 0.04 0  0.48 0.04 0  0.51 0.04 0  0.54 0.04 0  0.57 0.04 0  0.6 0.04 0  0.63 0.04 0  0.66 0.04 0  0.6899999999999999 0.04 0  0.72 0.04 0  0.75 0.04 0  0.78 0.04 0  0.8100000000000001 0.04 0  0.84 0.04 0  0.87 0.04 0  0.9 0.04 0  0.93 0.04 0  0.96 0.04 0  0.99 0.04 0  1.02 0.04 0  1.05 0.04 0  1.08 0.04 0  1.11 0.04 0  1.14 0.04 0  1.17 0.04 0  1.2 0.04 0  1.23 0.04 0  1.26 0.04 0  1.29 0.04 0  1.32 0.04 0  1.35 0.04 0  1.38 0.04 0  1.41 0.04 0  1.44 0.04 0  1.47 0.04 0  1.5 0.04 0  0 0.06 0  0.03 0.06 0  0.06 0.06 0  0.09 0.06 0  0.12 0.06 0  0.15 0.06 0  0.18 0.06 0  0.21 0.06 0  0.24 0.06 0  0.27 0.06 0  0.3 0.06 0  0.33 0.06 0  0.36 0.06 0  0.39 0.06 0  0.42 0.06 0  0.45 0.06 0  0.48 0.06 0  0.51 0.06 0  0.54 0.06 0  0.57 0.06 0  0.6 0.06 0  0.63 0.06 0  0.66 0.06 0  0.6899999999999999 0.06 0  0.72 0.06 0  0.75 0.06 0  0.78 0.06 0  0.8100000000000001 0.06 0  0.84 0.06 0  0.87 0.06 0  0.9 0.06 0  0.93 0.06 0  0.96 0.06 0  0.99 0.06 0  1.02 0.06 0  1.05 0.06 0  1.08 0.06 0  1.11 0.06 0  1.14 0.06 0  1.17 0.06 0  1.2 0.06 0  1.23 0.06 0  1.26 0.06 0  1.29 0.06 0  1.32 0.06 0  1.35 0.06 0  1.38 0.06 0  1.41 0.06 0  1.44 0.06 0  1.47 0.06 0  1.5 0.06 0  0 0.08 0  0.03 0.08 0  0.06 0.08 0  0.09 0.08 0  0.12 0.08 0  0.15 0.08 0  0.18 0.08 0  0.21 0.08 0  0.24 0.08 0  0.27 0.08 0  0.3 0.08 0  0.33 0.08 0  0.36 0.08 0  0.39 0.08 0  0.42 0.08 0  0.45 0.08 0  0.48 0.08 0  0.51 0.08 0  0.54 0.08 0  0.57 0.08 0  0.6 0.08 0  0.63 0.08 0  0.66 0.08 0  0.6899999999999999 0.08 0  0.72 0.08 0  0.75 0.08 0  0.78 0.08 0  0.8100000000000001 0.08 0  0.84 0.08 0  0.87 0.08 0  0.9 0.08 0  0.93 0.08 0  0.96 0.08 0  0.99 0.08 0  1.02 0.08 0  1.05 0.08 0  1.08 0.08 0  1.11 0.08 0  1.14 0.08 0  1.17 0.08 0  1.2 0.08 0  1.23 0.08 0  1.26 0.08 0  1.29 0.08 0  1.32 0.08 0  1.35 0.08 0  1.38 0.08 0  1.41 0.08 0  1.44 0.08 0  1.47 0.08 0  1.5 0.08 0  0 0.1 0  0.03 0.1 0  0.06 0.1 0  0.09 0.1 0  0.12 0.1 0  0.15 0.1 0  0.18 0.1 0  0.21 0.1 0  0.24 0.1 0  0.27 0.1 0  0.3 0.1 0  0.33 0.1 0  0.36 0.1 0  0.39 0.1 0  0.42 0.1 0  0.45 0.1 0  0.48 0.1 0  0.51 0.1 0  0.54 0.1 0  0.57 0.1 0  0.6 0.1 0  0.63 0.1 0  0.66 0.1 0  0.6899999999999999 0.1 0  0.72 0.1 0  0.75 0.1 0  0.78 0.1 0  0.8100000000000001 0.1 0  0.84 0.1 0  0.87 0.1 0  0.9 0.1 0  0.93 0.1 0  0.96 0.1 0  0.99 0.1 0  1.02 0.1 0  1.05 0.1 0  1.08 0.1 0  1.11 0.1 0  1.14 0.1 0  1.17 0.1 0  1.2 0.1 0  1.23 0.1 0  1.26 0.1 0  1.29 0.1 0  1.32 0.1 0  1.35 0.1 0  1.38 0.1 0  1.41 0.1 0  1.44 0.1 0  1.47 0.1 0  1.5 0.1 0  0 0.12 0  0.03 0.12 0  0.06 0.12 0  0.09 0.12 0  0.12 0.12 0  0.15 0.12 0  0.18 0.12 0  0.21 0.12 0  0.24 0.12 0  0.27 0.12 0  0.3 0.12 0  0.33 0.12 0  0.36 0.12 0  0.39 0.12 0  0.42 0.12 0  0.45 0.12 0  0.48 0.12 0  0.51 0.12 0  0.54 0.12 0  0.57 0.12 0  0.6 0.12 0  0.63 0.12 0  0.66 0.12 0  0.6899999999999999 0.12 0  0.72 0.12 0  0.75 0.12 0  0.78 0.12 0  0.8100000000000001 0.12 0  0.84 0.12 0  0.87 0.12 0  0.9 0.12 0  0.93 0.12 0  0.96 0.12 0  0.99 0.12 0  1.02 0.12 0  1.05 0.12 0  1.08 0.12 0  1.11 0.12 0  1.14 0.12 0  1.17 0.12 0  1.2 0.12 0  1.23 0.12 0  1.26 0.12 0  1.29 0.12 0  1.32 0.12 0  1.35 0.12 0  1.38 0.12 0  1.41 0.12 0  1.44 0.12 0  1.47 0.12 0  1.5 0.12 0  0 0.14 0  0.03 0.14 0  0.06 0.14 0  0.09 0.14 0  0.12 0.14 0  0.15 0.14 0  0.18 0.14 0  0.21 0.14 0  0.24 0.14 0  0.27 0.14 0  0.3 0.14 0  0.33 0.14 0  0.36 0.14 0  0.39 0.14 0  0.42 0.14 0  0.45 0.14 0  0.48 0.14 0  0.51 0.14 0  0.54 0.14 0  0.57 0.14 0  0.6 0.14 0  0.63 0.14 0  0.66 0.14 0  0.6899999999999999 0.14 0  0.72 0.14 0  0.75 0.14 0  0.78 0.14 0  0.8100000000000001 0.14 0  0.84 0.14 0  0.87 0.14 0  0.9 0.14 0  0.93 0.14 0  0.96 0.14 0  0.99 0.14 0  1.02 0.14 0  1.05 0.14 0  1.08 0.14 0  1.11 0.14 0  1.14 0.14 0  1.17 0.14 0  1.2 0.14 0  1.23 0.14 0  1.26 0.14 0  1.29 0.14 0  1.32 0.14 0  1.35 0.14 0  1.38 0.14 0  1.41 0.14 0  1.44 0.14 0  1.47 0.14 0  1.5 0.14 0  0 0.16 0  0.03 0.16 0  0.06 0.16 0  0.09 0.16 0  0.12 0.16 0  0.15 0.16 0  0.18 0.16 0  0.21 0.16 0  0.24 0.16 0  0.27 0.16 0  0.3 0.16 0  0.33 0.16 0  0.36 0.16 0  0.39 0.16 0  0.42 0.16 0  0.45 0.16 0  0.48 0.16 0  0.51 0.16 0  0.54 0.16 0  0.57 0.16 0  0.6 0.16 0  0.63 0.16 0  0.66 0.16 0  0.6899999999999999 0.16 0  0.72 0.16 0  0.75 0.16 0  0.78 0.16 0  0.8100000000000001 0.16 0  0.84 0.16 0  0.87 0.16 0  0.9 0.16 0  0.93 0.16 0  0.96 0.16 0  0.99 0.16 0  1.02 0.16 0  1.05 0.16 0  1.08 0.16 0  1.11 0.16 0  1.14 0.16 0  1.17 0.16 0  1.2 0.16 0  1.23 0.16 0  1.26 0.16 0  1.29 0.16 0  1.32 0.16 0  1.35 0.16 0  1.38 0.16 0  1.41 0.16 0  1.44 0.16 0  1.47 0.16 0  1.5 0.16 0  0 0.18 0  0.03 0.18 0  0.06 0.18 0  0.09 0.18 0  0.12 0.18 0  0.15 0.18 0  0.18 0.18 0  0.21 0.18 0  0.24 0.18 0  0.27 0.18 0  0.3 0.18 0  0.33 0.18 0  0.36 0.18 0  0.39 0.18 0  0.42 0.18 0  0.45 0.18 0  0.48 0.18 0  0.51 0.18 0  0.54 0.18 0  0.57 0.18 0  0.6 0.18 0  0.63 0.18 0  0.66 0.18 0  0.6899999999999999 0.18 0  0.72 0.18 0  0.75 0.18 0  0.78 0.18 0  0.8100000000000001 0.18 0  0.84 0.18 0  0.87 0.18 0  0.9 0.18 0  0.93 0.18 0  0.96 0.18 0  0.99 0.18 0  1.02 0.18 0  1.05 0.18 0  1.08 0.18 0  1.11 0.18 0  1.14 0.18 0  1.17 0.18 0  1.2 0.18 0  1.23 0.18 0  1.26 0.18 0  1.29 0.18 0  1.32 0.18 0  1.35 0.18 0  1.38 0.18 0  1.41 0.18 0  1.44 0.18 0  1.47 0.18 0  1.5 0.18 0  0 0.2 0  0.03 0.2 0  0.06 0.2 0  0.09 0.2 0  0.12 0.2 0  0.15 0.2 0  0.18 0.2 0  0.21 0.2 0  0.24 0.2 0  0.27 0.2 0  0.3 0.2 0  0.33 0.2 0  0.36 0.2 0  0.39 0.2 0  0.42 0.2 0  0.45 0.2 0  0.48 0.2 0  0.51 0.2 0  0.54 0.2 0  0.57 0.2 0  0.6 0.2 0  0.63 0.2 0  0.66 0.2 0  0.6899999999999999 0.2 0  0.72 0.2 0  0.75 0.2 0  0.78 0.2 0  0.8100000000000001 0.2 0  0.84 0.2 0  0.87 0.2 0  0.9 0.2 0  0.93 0.2 0  0.96 0.2 0  0.99 0.2 0  1.02 0.2 0  1.05 0.2 0  1.08 0.2 0  1.11 0.2 0  1.14 0.2 0  1.17 0.2 0  1.2 0.2 0  1.23 0.2 0  1.26 0.2 0  1.29 0.2 0  1.32 0.2 0  1.35 0.2 0  1.38 0.2 0  1.41 0.2 0  1.44 0.2 0  1.47 0.2 0  1.5 0.2 0  0 0.22 0  0.03 0.22 0  0.06 0.22 0  0.09 0.22 0  0.12 0.22 0  0.15 0.22 0  0.18 0.22 0  0.21 0.22 0  0.24 0.22 0  0.27 0.22 0  0.3 0.22 0  0.33 0.22 0  0.36 0.22 0  0.39 0.22 0  0.42 0.22 0  0.45 0.22 0  0.48 0.22 0  0.51 0.22 0  0.54 0.22 0  0.57 0.22 0  0.6 0.22 0  0.63 0.22 0  0.66 0.22 0  0.6899999999999999 0.22 0  0.72 0.22 0  0.75 0.22 0  0.78 0.22 0  0.8100000000000001 0.22 0  0.84 0.22 0  0.87 0.22 0  0.9 0.22 0  0.93 0.22 0  0.96 0.22 0  0.99 0.22 0  1.02 0.22 0  1.05 0.22 0  1.08 0.22 0  1.11 0.22 0  1.14 0.22 0  1.17 0.22 0  1.2 0.22 0  1.23 0.22 0  1.26 0.22 0  1.29 0.22 0  1.32 0.22 0  1.35 0.22 0  1.38 0.22 0  1.41 0.22 0  1.44 0.22 0  1.47 0.22 0  1.5 0.22 0  0 0.24 0  0.03 0.24 0  0.06 0.24 0  0.09 0.24 0  0.12 0.24 0  0.15 0.24 0  0.18 0.24 0  0.21 0.24 0  0.24 0.24 0  0.27 0.24 0  0.3 0.24 0  0.33 0.24 0  0.36 0.24 0  0.39 0.24 0  0.42 0.24 0  0.45 0.24 0  0.48 0.24 0  0.51 0.24 0  0.54 0.24 0  0.57 0.24 0  0.6 0.24 0  0.63 0.24 0  0.66 0.24 0  0.6899999999999999 0.24 0  0.72 0.24 0  0.75 0.24 0  0.78 0.24 0  0.8100000000000001 0.24 0  0.84 0.24 0  0.87 0.24 0  0.9 0.24 0  0.93 0.24 0  0.96 0.24 0  0.99 0.24 0  1.02 0.24 0  1.05 0.24 0  1.08 0.24 0  1.11 0.24 0  1.14 0.24 0  1.17 0.24 0  1.2 0.24 0  1.23 0.24 0  1.26 0.24 0  1.29 0.24 0  1.32 0.24 0  1.35 0.24 0  1.38 0.24 0  1.41 0.24 0  1.44 0.24 0  1.47 0.24 0  1.5 0.24 0  0 0.26 0  0.03 0.26 0  0.06 0.26 0  0.09 0.26 0  0.12 0.26 0  0.15 0.26 0  0.18 0.26 0  0.21 0.26 0  0.24 0.26 0  0.27 0.26 0  0.3 0.26 0  0.33 0.26 0  0.36 0.26 0  0.39 0.26 0  0.42 0.26 0  0.45 0.26 0  0.48 0.26 0  0.51 0.26 0  0.54 0.26 0  0.57 0.26 0  0.6 0.26 0  0.63 0.26 0  0.66 0.26 0  0.6899999999999999 0.26 0  0.72 0.26 0  0.75 0.26 0  0.78 0.26 0  0.8100000000000001 0.26 0  0.84 0.26 0  0.87 0.26 0  0.9 0.26 0  0.93 0.26 0  0.96 0.26 0  0.99 0.26 0  1.02 0.26 0  1.05 0.26 0  1.08 0.26 0  1.11 0.26 0  1.14 0.26 0  1.17 0.26 0  1.2 0.26 0  1.23 0.26 0  1.26 0.26 0  1.29 0.26 0  1.32 0.26 0  1.35 0.26 0  1.38 0.26 0  1.41 0.26 0  1.44 0.26 0  1.47 0.26 0  1.5 0.26 0  0 0.28 0  0.03 0.28 0  0.06 0.28 0  0.09 0.28 0  0.12 0.28 0  0.15 0.28 0  0.18 0.28 0  0.21 0.28 0  0.24 0.28 0  0.27 0.28 0  0.3 0.28 0  0.33 0.28 0  0.36 0.28 0  0.39 0.28 0  0.42 0.28 0  0.45 0.28 0  0.48 0.28 0  0.51 0.28 0  0.54 0.28 0  0.57 0.28 0  0.6 0.28 0  0.63 0.28 0  0.66 0.28 0  0.6899999999999999 0.28 0  0.72 0.28 0  0.75 0.28 0  0.78 0.28 0  0.8100000000000001 0.28 0  0.84 0.28 0  0.87 0.28 0  0.9 0.28 0  0.93 0.28 0  0.96 0.28 0  0.99 0.28 0  1.02 0.28
[...]
<PointData  Scalars="sensitivity"> 
<DataArray  type="Float64"  Name="sensitivity"  format="ascii">-5.5800567703517902e-07  -1.0227019521823347e-05  -4.1983196775457420e-05  -1.0402575711552569e-04  -1.9433691443015598e-04  -3.0040402466464776e-04  -4.0739907969642054e-04  -5.0378342727489184e-04  -5.8224171204738313e-04  -6.4009515726726641e-04  -6.7978215914993897e-04  -7.0719795211930800e-04  -7.2782879780133761e-04  -7.4354715239530872e-04  -7.5288110887997736e-04  -7.5440906503623990e-04  -7.4942062808982049e-04  -7.4100439645599853e-04  -7.3147885563981403e-04  -7.2154132876946285e-04  -7.1139208098207622e-04  -7.0174215789225959e-04  -6.9359554412982917e-04  -6.8755611738622810e-04  -6.8366889397406005e-04  -6.8187062131614480e-04  -6.8245748023187827e-04  -6.8608114587308386e-04  -6.9330243084333445e-04  -7.0410653946934845e-04  -7.1766618725046269e-04  -7.3225361315457343e-04  -7.4519910768842035e-04  -7.5324705021022223e-04  -7.5368932992612807e-04  -7.4581866564188794e-04  -7.3149691978255079e-04  -7.1392037680456948e-04  -6.9483296052781163e-04  -6.7197591562361415e-04  -6.3933061551376584e-04  -5.9075989483601122e-04  -5.2380048473924510e-04  -4.4008156776673423e-04  -3.4361107266563595e-04  -2.4101633124023724e-04  -1.4401848020196957e-04  -6.7822282224400576e-05  -2.2100694022697729e-05  -2.7217247720711666e-06  -9.3037052207664061e-09  -5.7344727387338006e-06  -7.1801390951247367e-05  -2.8629341032958462e-04  -7.2903723003244901e-04  -1.3977546602802031e-03  -2.2006066455868439e-03  -3.0214132022214524e-03  -3.7685770013008353e-03  -4.3827773754455462e-03  -4.8380620418997612e-03  -5.1477751477738152e-03  -5.3565382659149863e-03  -5.5115357168435408e-03  -5.6332269901066875e-03  -5.7113222968799057e-03  -5.7303081981928223e-03  -5.6958120751447548e-03  -5.6319297201140248e-03  -5.5592326769198777e-03  -5.4840950837355329e-03  -5.4068399813504437e-03  -5.3317890832968512e-03  -5.2669348659469687e-03  -5.2178643452115651e-03  -5.1852768878352150e-03  -5.1681350009424630e-03  -5.1679565936441083e-03  -5.1896611746318723e-03  -5.2383953401436917e-03  -5.3154126918016457e-03  -5.4159066349177536e-03  -5.5283536872005878e-03  -5.6338357915037230e-03  -5.7075078789604917e-03  -5.7262318453961880e-03  -5.6804968255924557e-03  -5.5815135744609829e-03  -5.4549138254573427e-03  -5.3203763618481737e-03  -5.1684490890828005e-03  -4.9557887724562006e-03  -4.6302828684880361e-03  -4.1647864085590696e-03  -3.5655679638156570e-03  -2.8573219755039267e-03  -2.0804183386111275e-03  -1.3118770658542790e-03  -6.6986496833531899e-04  -2.5340529510903032e-04  -5.5975392048270779e-05  -1.8973773904523134e-06  -1.7790543941906973e-05  -1.5446067171083995e-04  -4.9010791157938212e-04  -1.1681940008865565e-03  -2.1730520839967223e-03  -3.3448091710899601e-03  -4.5132494740125709e-03  -5.5601443292431869e-03  -6.4095124083204886e-03  -7.0237567046094506e-03  -7.4230868679100327e-03  -7.6818636963045216e-03  -7.8811617399384450e-03  -8.0535412314793643e-03  -8.1713667042155099e-03  -8.1958308725899737e-03  -8.1329879559867892e-03  -8.0283778246200144e-03  -7.9187664797777824e-03  -7.8099994766329742e-03  -7.6966106939341423e-03  -7.5839891953051403e-03  -7.4866183444863132e-03  -7.4143039784942636e-03  -7.3667963139444374e-03  -7.3402242328790383e-03  -7.3358404319317904e-03  -7.3620867660716448e-03  -7.4287709360460179e-03  -7.5394249080191454e-03  -7.6880645739516341e-03  -7.8591527086499836e-03  -8.0257340778424283e-03  -8.1489961522831986e-03  -8.1893318729364187e-03  -8.1279124928708198e-03  -7.9820597661753642e-03  -7.7983827827784024e-03  -7.6199477920994773e-03  -7.4420882608071887e-03  -7.1956446856725588e-03  -6.7894832738802221e-03  -6.1771469173256708e-03  -5.3712158618359233e-03  -4.4042776873105070e-03  -3.3139813588711139e-03  -2.1821621582278571e-03  -1.1796865252254132e-03  -4.9425211986845038e-04  -1.5077545542935145e-04  -1.1396564351658434e-05  -3.1967053562292169e-05  -2.7453291338609952e-04  -7.6580820177711583e-04  -1.6650351101579193e-03  -2.8737624840951778e-03  -4.1493303498580138e-03  -5.3280228866649827e-03  -6.3415671153303401e-03  -7.1418438745074067e-03  -7.6888345595800276e-03  -8.0054360015443197e-03  -8.1931064723128558e-03  -8.3642519255068184e-03  -8.5549565919638138e-03  -8.7012969565563245e-03  -8.7226086212620919e-03  -8.6248729173638225e-03  -8.4860000214058168e-03  -8.3608253165036294e-03  -8.2448514960228678e-03  -8.1182527106850744e-03  -7.9870575882492571e-03  -7.8749937021073031e-03  -7.7962473152252982e-03  -7.7470657159511161e-03  -7.7179678272294439e-03  -7.7085670357472658e-03  -7.7309885001820341e-03  -7.8004767565117861e-03  -7.9233270196695706e-03  -8.0934566185420879e-03  -8.2952444256495020e-03  -8.5000708182598264e-03  -8.6598055611132735e-03  -8.7188613196138107e-03  -8.6475279002531987e-03  -8.4685316856845591e-03  -8.2523647194152686e-03  -8.0746787289008842e-03  -7.9475966891743178e-03  -7.7813823795322657e-03  -7.4456744186433173e-03  -6.8833448750202633e-03  -6.1273587070053755e-03  -5.2138981482466673e-03  -4.1335062353473643e-03  -2.8972977973410743e-03  -1.6771006584971214e-03  -7.5859253657555221e-04  -2.6813350956221945e-04  -2.7128245197350009e-05  -3.6808781363705194e-05  -4.4875357721012467e-04  -1.3919218326818431e-03  -2.8881928977127652e-03  -4.4913838409964503e-03  -5.7954942979027277e-03  -6.7472569207077896e-03  -7.4604771633340608e-03  -7.9964216734698997e-03  -8.3225794364372805e-03  -8.4405730000407572e-03  -8.4718156977381196e-03  -8.5709283848258832e-03  -8.7808158596682315e-03  -8.9733717266570947e-03  -8.9881795398984651e-03  -8.8315596008754649e-03  -8.6432436177521221e-03  -8.5080022220759242e-03  -8.3961895843600413e-03  -8.2590190835679072e-03  -8.1050292103523117e-03  -7.9756780630060448e-03  -7.8925170445308425e-03  -7.8453550016521836e-03  -7.8150964971826168e-03  -7.7981102407681836e-03  -7.8117924801997182e-03  -7.8798852183129906e-03  -8.0129498778984364e-03  -8.2043015230968130e-03  -8.4394382242480998e-03  -8.6917688690250992e-03  -8.9033184797739934e-03  -8.9939167951717143e-03  -8.9137828331836717e-03  -8.6904102459143991e-03  -8.4289108809028311e-03  -8.2592995616063199e-03  -8.2339519933357450e-03  -8.2445403112560885e-03  -8.1010243068542816e-03  -7.7371359854827562e-03  -7.2391711437822170e-03  -6.6512366982881448e-03  -5.8337837504689348e-03  -4.5731664557418453e-03  -2.9000764353389508e-03  -1.3316748577929150e-03  -4.0968526494249098e-04  -3.9877632512991606e-05  -2.9270765257008125e-05  -8.8417626363742653e-04  -3.6322123818903259e-03  -7.0695155616783863e-03  -9.3842225592957185e-03  -1.0281289379086156e-02  -1.0353667292887671e-02  -1.0104124192032292e-02  -9.7410719297899018e-03  -9.3528789155525125e-03  -8.9915031143208823e-03  -8.7345713654666188e-03  -8.7076798589124441e-03  -8.9421843344482822e-03  -9.2068561241185672e-03  -9.2008411931432908e-03  -8.9372634899786522e-03  -8.6724083654957703e-03  -8.5379989025584965e-03  -8.4505890629356581e-03  -8.3073600999706686e-03  -8.1236110079696711e-03  -7.9725449017565425e-03  -7.8873061148324857e-03  -7.8469722094722770e-03  -7.8175869114526352e-03  -7.7900661672428619e-03  -7.7888929559265024e-03  -7.8507516005081098e-03  -7.9934103491597526e-03  -8.2085742038261866e-03  -8.4826363143361266e-03  -8.7961786813590889e-03  -9.0837398601019605e-03  -9.2289155341669562e-03  -9.1436605274222791e-03  -8.8554279441844814e-03  -8.5224093243667087e-03  -8.3696150631249605e-03  -8.5413847690087360e-03  -8.9356970770672391e-03  -9.2751737138299234e-03  -9.4722280044458422e-03  -9.7247765827118138e-03  -1.0123587122106266e-02  -1.0348554894305952e-02  -9.7110641452312005e-03  -7.1566108764803630e-03  -3.1827725904172263e-03  -6.3660926233707026e-04  -3.7783483179323606e-05  -1.1484702961384761e-04  -3.6645064719671452e-03  -1.2763942793544630e-02  -1.9297213075432740e-02  -2.1291014065161866e-02  -2.0474383127118034e-02  -1.8629698393276800e-02  -1.6729631514581310e-02  -1.4735847389814066e-02  -1.2385365764024820e-02  -1.0346520362507850e-02  -9.1928636577307855e-03  -8.8776006494011191e-03  -9.1714718831093205e-03  -9.5792451166240647e-03  -9.5092602025826419e-03  -9.0242075504263462e-03  -8.6295917406068526e-03  -8.5096085133730646e-03  -8.4655111722979712e-03  -8.3116450437353585e-03  -8.0843966683302165e-03  -7.9065551440436407e-03  -7.8246537341659251e-03  -7.7999330930076903e-03  -7.7768367059577650e-03  -7.7375559023442888e-03  -7.7146210797795238e-03  -7.7631152531107816e-03  -7.9139362878988158e-03  -8.1578883733098122e-03  -8.4825076561811600e-03  -8.8819682678739423e-03  -9.2820822193917154e-03  -9.5111952358951039e-03  -9.4217222909890753e-03  -9.0411885464640757e-03  -8.6237816086182952e-03  -8.5800512771648709e-03  -9.2543003812885043e-03  -1.0598996545171116e-02  -1.2177660319605070e-02  -1.3781040486826613e-02  -1.5627588725198871e-02  -1.7758346243701477e-02  -1.9744538289644793e-02  -2.0835756211222724e-02  -1.9393117886814932e-02  -1.3128080615597346e-02  -2.6292787050713855e-03  -2.5942555311207608e-05  -1.4683855360881069e-03  -1.6118194247885072e-02  -2.8874410642131094e-02  -3.1894310857865753e-02  -3.1908205818502122e-02  -3.1395222559019165e-02  -2.9621024888717165e-02  -2.6437235281387673e-02  -2.3309872172291385e-02  -1.9872937035457935e-02  -1.5031400556792010e-02  -1.0983366999751925e-02  -9.2477022727267995e-03  -9.3383324250023714e-03  -1.0062280081474997e-02  -1.0015057724522221e-02  -9.1849106902182082e-03  -8.5594229860728090e-03  -8.4976310601831122e-03  -8.5405669805660583e-03  -8.3371172837683402e-03  -8.0204858660570793e-03  -7.7997521783187218e-03  -7.7248856481624871e-03  -7.7252570899643712e-03  -7.7162115485590399e-03  -7.6674503406528906e-03  -7.6185643675638530e-03  -7.6469024980813562e-03  -7.8035906550945307e-03  -8.0789558949496271e-03  -8.4580932939290338e-03  -8.9624281113890262e-03  -9.5166794926446144e-03  -9.8494536882302326e-03  -9.7372905008041681e-03  -9.2948997615587836e-03  -8.9721731157644431e-03  -9.4417419350864683e-03  -1.1392680737252260e-02  -1.4832587327138906e-02  -1.8556935588702857e-02  -2.1848030241981037e-02  -2.4992584361453202e-02  -2.7823378051258316e-02  -3.0101102330889331e-02  -3.1547569166203195e-02  -3.0930368907799474e-02  -3.0397407771669160e-02  -1.5271208638236373e-02  -1.5228189366111100e-04  -1.2359377716290107e-02  -4.3198745571289790e-02  -3.5747549031118167e-02  -3.1870055747630910e-02  -3.1001546785685390e-02  -3.2075332190097401e-02  -3.4382972607019377e-02  -3.4788255683032114e-02  -3.2382190277414520e-02  -2.8939602513154424e-02  -2.3834040667138828e-02  -1.7176116822064404e-02  -1.1847448421981073e-02  -1.0024785729059000e-02  -1.0622723002785425e-02  -1.0421934512585032e-02  -9.2647239262352160e-03  -8.5018160145602373e-03  -8.5033551083109910e-03  -8.7131614664613822e-03  -8.4692318521445570e-03  -7.9991007773990864e-03  -7.7078743512622476e-03  -7.6451082368470622e-03  -7.6789184363186755e-03  -7.6877730027323839e-03  -7.6288810044242168e-03  -7.5470961789082533e-03  -7.5443894865585455e-03  -7.7018023739404444e-03  -8.0022274081838155e-03  -8.3967705367407764e-03  -8.9394069520318982e-03  -9.6480228647728896e-03  -1.0236546696214264e-02  -1.0262839259920069e-02  -9.9575242549689823e-03  -1.0293401346382628e-02  -1.2304705289676221e-02  -1.6618663105852312e-02  -2.2599019343586178e-02  -2.8008868101886200e-02  -3.1257154355648492e-02  -3.2910948833025422e-02  -3.3647072677349101e-02  -3.4811746214458178e-02  -3.7824423576281303e-02  -4.0812718160323003e-02  -3.8558577754840673e-02  -4.1084737181877426e-02  -6.3059567475528240e-03  -2.3933018654293318e-02  -5.6906829658186261e-02  -4.7347147109267129e-02  -3.9420418580472738e-02  -3.3377234646830060e-02  -2.9542247006983914e-02  -3.0497279127247014e-02  -3.4076493882501280e-02  -3.5822648673773577e-02  -3.4002364547970579e-02  -2.9618506604607714e-02  -2.4378393254475664e-02  -1.9247001279554594e-02  -1.5381003262941409e-02  -1.4381914103653073e-02  -1.2573953327974497e-02  -8.9249709440665827e-03  -7.2509248938307574e-03  -8.3194482896286111e-03  -8.8217871223984449e-03  -8.5087904680967372e-03  -7.8937261071408953e-03  -7.5324709264885251e-03  -7.5042866674701041e-03  -7.5963094825220959e-03  -7.6318864574137519e-03  -7.5606406359081772e-03  -7.4315514080674633e-03  -7.3651198523154550e-03  -7.4902144676001628e-03  -7.8221711955946960e-03  -8.2418401366090906e-03  -8.7560112461884249e-03  -9.6485364917916448e-03  -1.0972747021410793e-02  -1.2115117309225681e-02  -1.2732179353682607e-02  -1.4003241615582827e-02  -1.7160729735252619e-02  -2.2507055394125459e-02  -2.8736851842382210e-02  -3.3043540915956168e-02  -3.4115915162961911e-02  -3.3059280205263671e-02  -3.2025655343872833e-02  -3.3395456333027089e-02  -3.9014640914275422e-02  -4.9352667339396486e-02  -5.6323817435682280e-02  -4.8033865538745925e-02  -2.4891218756644722e-02  -2.1845918177211567e-02  -4.0507895301543494e-02  -4.1169499351526237e-02  -4.3857637432941757e-02  -4.0335727856667586e-02  -3.4186816959436518e-02  -3.0433086599939461e-02  -3.0273001169988090e-02  -3.2594745703519924e-02  -3.4152079437769017e-02  -3.2055067701167769e-02  -2.7718468050610800e-02  -2.4046968949941943e-02  -2.2668113699060823e-02  -2.3600149203847259e-02  -2.1219765976776873e-02  -1.1512184129985521e-02  -7.5347927807296738e-03  -7.9844827835831769e-03  -9.0662674293158670e-03  -8.4041907629453707e-03  -7.5481537228065795e-03  -7.1910594704885054e-03  -7.2444693048587068e-03  -7.4240631283481739e-03  -7.5053232130205642e-03  -7.4286131561258802e-03  -7.2437454497861556e-03  -7.0806327588534747e-03  -7.1286755037859298e-03  -7.5356419285599581e-03  -8.3000514850615388e-03  -9.4348793999948655e-03  -1.1304193567148053e-02  -1.4257841355302255e-02  -1.7654956884936426e-02  -1.9100023071866420e-02  -1.9554480325770271e-02  -2.2046892972796231e-02  -2.6484675367945801e-02  -3.0969821745517503e-02  -3.2907208385090210e-02  -3.1582984021420950e-02  -2.9583708486354068e-02  -3.0101608598248234e-02  -3.4049330999967618e-02  -3.8554362037729564e-02  -4.0125466997307332e-02  -3.9879139156172208e-02  -4.0263391209939672e-02  -2.1811647814362341e-02  -3.0716226864827355e-02  -5.0821230300181083e-02  -4.1871630890294283e-02  -3.9303486225129629e-02  -4.0557547396188276e-02  -3.8013379641961526e-02  -3.3151393021768456e-02  -3.0163011413425398e-02  -2.9820987999714284e-02  -3.1249207314039209e-02  -3.1939198456870335e-02  -2.9995748576188475e-02  -2.7140670225202685e-02  -2.5619610219349151e-02  -2.6318363170362891e-02  -2.7373156572975389e-02  -2.2100388105398893e-02  -1.2590705770537629e-02  -1.0338541504666895e-02  -1.0878011991495268e-02  -9.2003875905667613e-03  -7.4907943402508712e-03  -7.0129752502184409e-03  -7.1370856440222136e-03  -7.3965846177987526e-03  -7.5452703885402614e-03  -7.5304940231137934e-03  -7.3941459721128906e-03  -7.2477798689465330e-03  -7.3416655589169846e-03  -8.0573633572481266e-03  -9.8370028839330544e-03  -1.3028882704301309e-02  -1.7959362297464629e-02  -2.3281263049852476e-02  -2.5281688176023664e-02  -2.5051937865775545e-02  -2.5446066442535820e-02  -2.6901159286092501e-02  -2.8938592956452094e-02  -3.0336297563806271e-02  -2.9636714010826022e-02  -2.7872247447457844e-02  -2.8186683763982930e-02  -3.1635256891984403e-02  -3.6130888855237644e-02  -3.8227288252958735e-02  -3.8840427660450393e-02  -4.3389495585159775e-02  -5.2294280598640802e-02  -2.7991728066873018e-02  -3.6892395781814691e-02  -6.3737091761578199e-02  -5.0361013095169466e-02  -4.1656547482911345e-02  -3.8366527192134070e-02  -3.7860510028834254e-02  -3.5067104952652486e-02  -3.1011738940987410e-02  -2.8511509503794837e-02  -2.7842634601843268e-02  -2.8496189025707799e-02  -2.9307187671210537e-02  -2.9085668969710120e-02  -2.8382257184926731e-02  -2.7970765896734560e-02  -2.7435452920509695e-02  -2.5752086179970667e-02  -2.2383706406578413e-02  -2.0211664577838274e-02  -2.0421498101511868e-02  -1.6324702198688593e-02  -1.1077717943313340e-02  -9.2387082113315182e-03  -9.0546782661839898e-03  -9.2544550539788249e-03  -9.4268329237365243e-03  -9.5596646161618115e-03  -9.6969001325424124e-03  -9.8855479274221718e-03  -1.0436238604381096e-02  -1.2045891070304088e-02  -1.5591299778153111e-02  -2.0781246610038492e-02  -2.5077696411505958e-02  -2.7846223390166999e-02  -2.9671505214502562e-02  -3.0046061416839288e-02  -2.9535658724580086e-02  -2.8993438107003406e-02  -2.8367405069559256e-02  -2.7282174981996265e-02  -2.6219612081370452e-02  -2.6667079125752950e-02  -2.9456299802445182e-02  -3.3647164367696415e-02  -3.6871088030902305e-02  -3.8719200193349859e-02  -4.2507170010731871e-02  -5.0924763409623187e-02  -6.3906499866695485e-02  -3.5634752052269965e-02  -3.5850657963998500e-02  -6.5483450735820459e-02  -5.3465355474749544e-02  -4.4642264910426367e-02  -3.9561602997466368e-02  -3.7105003619619520e-02  -3.5561718694983202e-02  -3.2766414359077400e-02  -2.9435782004305411e-02  -2.7143167900265271e-02  -2.6038163698233491e-02  -2.6182667952142327e-02  -2.7364021264267527e-02  -2.8709520825797065e-02  -2.9472471703621207e-02  -2.9149769930689955e-02  -2.7680454495735553e-02  -2.5869037654135296e-02  -2.4834592445196087e-02  -2.4775419236347265e-02  -2.3803029352675534e-02  -2.0540195552932128e-02  -1.8079800734125871e-02  -1.7644226105952138e-02  -1.7892521844447774e-02  -1.7967821474501992e-02  -1.7945824444833794e-02  -1.8022262113735608e-02  -1.8157543875302502e-02  -1.8470245360479805e-02  -1.9459551668514697e-02  -2.1702670080669444e-02  -2.5229775516910358e-02  -2.8886805653282784e-02  -3.1229180459423314e-02  -3.1926085950108769e-02  -3.1153789303964494e-02  -2.9322159118837551e-02  -2.7193964691463918e-02  -2.5552512315193558e-02  -2.4967107284351007e-02  -2.5785283849208553e-02  -2.8148995090240436e-02  -3.1621115961703444e-02  -3.4861364218774560e-02  -3.7286885054232152e-02  -3.9973297042222848e-02  -4.4716362300419532e-02  -5.3138354095875771e-02  -6.4946496196901807e-02  -3.6969136230294887e-02  -2.8312550200765178e-02  -5.5270261495448191e-02  -4.8566685482988703e-02  -4.3415518581499661e-02  -4.0006740290180177e-02  -3.7476715793119432e-02  -3.5528294344642497e-02  -3.3859137633204278e-02  -3.1527929766194923e-02  -2.8867610024772165e-02  -2.6659338556838649e-02  -2.5213116593251872e-02  -2.4956618017194034e-02  -2.6110878685990723e-02  -2.8054075703196273e-02  -2.9622884441650822e-02  -3.0115363631446235e-02  -2.9859025713772813e-02  -2.9515737547503088e-02  -2.9072368070613995e-02  -2.7964307385337027e-02  -2.6156913357408110e-02  -2.4651755515364231e-02  -2.4228259030073532e-02  -2.4528762132250019e-02  -2.4840240651941622e-02  -2.4971102351720644e-02  -2.5093060262392858e-02  -2.5305231919641884e-02  -2.5690072191376687e-02  -2.6485042378596526e-02  -2.7924067963305942e-02  -2.9878774982459600e-02  -3.1658850293002694e-02  -3.2285457460884612e-02  -3.1231213310985034e-02  -2.8892820052823075e-02  -2.6290224415026864e-02  -2.4520343147574900e-02  -2.4264662257917263e-02  -2.5513870385301327e-02  -2.7825050847808633e-02  -3.0612772124822524e-02  -3.3198840903977643e-02  -3.5305467643464497e-02  -3.7461828620222321e-02  -4.0087178559348825e-02  -4.3309491874733562e-02  -4.7835225965087352e-02  -5.4233992501953286e-02  -3.1057403739902324e-02  -2.1973935879794407e-02  -4.1848754895070173e-02  -4.0792758320182400e-02  -3.9686455082126294e-02  -3.8356583975928032e-02  -3.6949340552506205e-02  -3.5493642218438447e-02  -3.4203724329256099e-02  -3.2875698104330997e-02  -3.1048109553045680e-02  -2.8826346024753334e-02  -2.6699894734413091e-02  -2.5179181250560564e-02  -2.4792043653431114e-02  -2.5833673561532152e-02  -2.7934208337622602e-02  -3.0210668202691405e-02  -3.2034991925670504e-02  -3.3305995948126020e-02  -3.3948678173984982e-02  -3.3755126131947637e-02  -3.2874927168201958e-02  -3.1987310421272744e-02  -3.1656571482427370e-02  -3.1841797000623756e-02  -3.2171688237624237e-02  -3.2401728213310416e-02  -3.2491797355516758e-02  -3.2469770608251500e-02  -3.2424116702499964e-02  -3.2517873974972099e-02  -