<?xml version="1.0"?>
<VTKFile type="UnstructuredGrid"  version="0.1"  >
<UnstructuredGrid>
<Piece  NumberOfPoints="2601" NumberOfCells="5000">
<Points>
<DataArray  type="Float64"  NumberOfComponents="3"  format="ascii">0 0 0  0.03 0 0  0.06 0 0  0.09 0 0  0.12 0 0  0.15 0 0  0.18 0 0  0.21 0 0  0.24 0 0  0.27 0 0  0.3 0 0  0.33 0 0  0.36 0 0  0.39 0 0  0.42 0 0  0.45 0 0  0.48 0 0  0.51 0 0  0.54 0 0  0.57 0 0  0.6 0 0  0.63 0 0  0.66 0 0  0.6899999999999999 0 0  0.72 0 0  0.75 0 0  0.78 0 0  0.8100000000000001 0 0  0.84 0 0  0.87 0 0  0.9 0 0  0.93 0 0  0.96 0 0  0.99 0 0  1.02 0 0  1.05 0 0  1.08 0 0  1.11 0 0  1.14 0 0  1.17 0 0  1.2 0 0  1.23 0 0  1.26 0 0  1.29 0 0  1.32 0 0  1.35 0 0  1.38 0 0  1.41 0 0  1.44 0 0  1.47 0 0  1.5 0 0  0 0.02 0  0.03 0.02 0  0.06 0.02 0  0.09 0.02 0  0.12 0.02 0  0.15 0.02 0  0.18 0.02 0  0.21 0.02 0  0.24 0.02 0  0.27 0.02 0  0.3 0.02 0  0.33 0.02 0  0.36 0.02 0  0.39 0.02 0  0.42 0.02 0  0.45 0.02 0  0.48 0.02 0  0.51 0.02 0  0.54 0.02 0  0.57 0.02 0  0.6 0.02 0  0.63 0.02 0  0.66 0.02 0  0.6899999999999999 0.02 0  0.72 0.02 0  0.75 0.02 0  0.78 0.02 0  0.8100000000000001 0.02 0  0.84 0.02 0  0.87 0.02 0  0.9 0.02 0  0.93 0.02 0  0.96 0.02 0  0.99 0.02 0  1.02 0.02 0  1.05 0.02 0  1.08 0.02 0  1.11 0.02 0  1.14 0.02 0  1.17 0.02 0  1.2 0.02 0  1.23 0.02 0  1.26 0.02 0  1.29 0.02 0  1.32 0.02 0  1.35 0.02 0  1.38 0.02 0  1.41 0.02 0  1.44 0.02 0  1.47 0.02 0  1.5 0.02 0  0 0.04 0  0.03 0.04 0  0.06 0.04 0  0.09 0.04 0  0.12 0.04 0  0.15 0.04 0  0.18 0.04 0  0.21 0.04 0  0.24 0.04 0  0.27 0.04 0  0.3 0.04 0  0.33 0.04 0  0.36 0.04 0  0.39 0.04 0  0.42 0.04 0  0.45 0.04 0  0.48 0.04 0  0.51 0.04 0  0.54 0.04 0  0.57 0.04 0  0.6 0.04 0  0.63 0.04 0  0.66 0.04 0  0.6899999999999999 0.04 0  0.72 0.04 0  0.75 0.04 0  0.78 0.04 0  0.8100000000000001 0.04 0  0.84 0.04 0  0.87 0.04 0  0.9 0.04 0  0.93 0.04 0  0.96 0.04 0  0.99 0.04 0  1.02 0.04 0  1.05 0.04 0  1.08 0.04 0  1.11 0.04 0  1.14 0.04 0  1.17 0.04 0  1.2 0.04 0  1.23 0.04 0  1.26 0.04 0  1.29 0.04 0  1.32 0.04 0  1.35 0.04 0  1.38 0.04 0  1.41 0.04 0  1.44 0.04 0  1.47 0.04 0  1.5 0.04 0  0 0.06 0  0.03 0.06 0  0.06 0.06 0  0.09 0.06 0  0.12 0.06 0  0.15 0.06 0  0.18 0.06 0  0.21 0.06 0  0.24 0.06 0  0.27 0.06 0  0.3 0.06 0  0.33 0.06 0  0.36 0.06 0  0.39 0.06 0  0.42 0.06 0  0.45 0.06 0  0.48 0.06 0  0.51 0.06 0  0.54 0.06 0  0.57 0.06 0  0.6 0.06 0  0.63 0.06 0  0.66 0.06 0  0.6899999999999999 0.06 0  0.72 0.06 0  0.75 0.06 0  0.78 0.06 0  0.8100000000000001 0.06 0  0.84 0.06 0  0.87 0.06 0  0.9 0.06 0  0.93 0.06 0  0.96 0.06 0  0.99 0.06 0  1.02 0.06 0  1.05 0.06 0  1.08 0.06 0  1.11 0.06 0  1.14 0.06 0  1.17 0.06 0  1.2 0.06 0  1.23 0.06 0  1.26 0.06 0  1.29 0.06 0  1.32 0.06 0  1.35 0.06 0  1.38 0.06 0  1.41 0.06 0  1.44 0.06 0  1.47 0.06 0  1.5 0.06 0  0 0.08 0  0.03 0.08 0  0.06 0.08 0  0.09 0.08 0  0.12 0.08 0  0.15 0.08 0  0.18 0.08 0  0.21 0.08 0  0.24 0.08 0  0.27 0.08 0  0.3 0.08 0  0.33 0.08 0  0.36 0.08 0  0.39 0.08 0  0.42 0.08 0  0.45 0.08 0  0.48 0.08 0  0.51 0.08 0  0.54 0.08 0  0.57 0.08 0  0.6 0.08 0  0.63 0.08 0  0.66 0.08 0  0.6899999999999999 0.08 0  0.72 0.08 0  0.75 0.08 0  0.78 0.08 0  0.8100000000000001 0.08 0  0.84 0.08 0  0.87 0.08 0  0.9 0.08 0  0.93 0.08 0  0.96 0.08 0  0.99 0.08 0  1.02 0.08 0  1.05 0.08 0  1.08 0.08 0  1.11 0.08 0  1.14 0.08 0  1.17 0.08 0  1.2 0.08 0  1.23 0.08 0  1.26 0.08 0  1.29 0.08 0  1.32 0.08 0  1.35 0.08 0  1.38 0.08 0  1.41 0.08 0  1.44 0.08 0  1.47 0.08 0  1.5 0.08 0  0 0.1 0  0.03 0.1 0  0.06 0.1 0  0.09 0.1 0  0.12 0.1 0  0.15 0.1 0  0.18 0.1 0  0.21 0.1 0  0.24 0.1 0  0.27 0.1 0  0.3 0.1 0  0.33 0.1 0  0.36 0.1 0  0.39 0.1 0  0.42 0.1 0  0.45 0.1 0  0.48 0.1 0  0.51 0.1 0  0.54 0.1 0  0.57 0.1 0  0.6 0.1 0  0.63 0.1 0  0.66 0.1 0  0.6899999999999999 0.1 0  0.72 0.1 0  0.75 0.1 0  0.78 0.1 0  0.8100000000000001 0.1 0  0.84 0.1 0  0.87 0.1 0  0.9 0.1 0  0.93 0.1 0  0.96 0.1 0  0.99 0.1 0  1.02 0.1 0  1.05 0.1 0  1.08 0.1 0  1.11 0.1 0  1.14 0.1 0  1.17 0.1 0  1.2 0.1 0  1.23 0.1 0  1.26 0.1 0  1.29 0.1 0  1.32 0.1 0  1.35 0.1 0  1.38 0.1 0  1.41 0.1 0  1.44 0.1 0  1.47 0.1 0  1.5 0.1 0  0 0.12 0  0.03 0.12 0  0.06 0.12 0  0.09 0.12 0  0.12 0.12 0  0.15 0.12 0  0.18 0.12 0  0.21 0.12 0  0.24 0.12 0  0.27 0.12 0  0.3 0.12 0  0.33 0.12 0  0.36 0.12 0  0.39 0.12 0  0.42 0.12 0  0.45 0.12 0  0.48 0.12 0  0.51 0.12 0  0.54 0.12 0  0.57 0.12 0  0.6 0.12 0  0.63 0.12 0  0.66 0.12 0  0.6899999999999999 0.12 0  0.72 0.12 0  0.75 0.12 0  0.78 0.12 0  0.8100000000000001 0.12 0  0.84 0.12 0  0.87 0.12 0  0.9 0.12 0  0.93 0.12 0  0.96 0.12 0  0.99 0.12 0  1.02 0.12 0  1.05 0.12 0  1.08 0.12 0  1.11 0.12 0  1.14 0.12 0  1.17 0.12 0  1.2 0.12 0  1.23 0.12 0  1.26 0.12 0  1.29 0.12 0  1.32 0.12 0  1.35 0.12 0  1.38 0.12 0  1.41 0.12 0  1.44 0.12 0  1.47 0.12 0  1.5 0.12 0  0 0.14 0  0.03 0.14 0  0.06 0.14 0  0.09 0.14 0  0.12 0.14 0  0.15 0.14 0  0.18 0.14 0  0.21 0.14 0  0.24 0.14 0  0.27 0.14 0  0.3 0.14 0  0.33 0.14 0  0.36 0.14 0  0.39 0.14 0  0.42 0.14 0  0.45 0.14 0  0.48 0.14 0  0.51 0.14 0  0.54 0.14 0  0.57 0.14 0  0.6 0.14 0  0.63 0.14 0  0.66 0.14 0  0.6899999999999999 0.14 0  0.72 0.14 0  0.75 0.14 0  0.78 0.14 0  0.8100000000000001 0.14 0  0.84 0.14 0  0.87 0.14 0  0.9 0.14 0  0.93 0.14 0  0.96 0.14 0  0.99 0.14 0  1.02 0.14 0  1.05 0.14 0  1.08 0.14 0  1.11 0.14 0  1.14 0.14 0  1.17 0.14 0  1.2 0.14 0  1.23 0.14 0  1.26 0.14 0  1.29 0.14 0  1.32 0.14 0  1.35 0.14 0  1.38 0.14 0  1.41 0.14 0  1.44 0.14 0  1.47 0.14 0  1.5 0.14 0  0 0.16 0  0.03 0.16 0  0.06 0.16 0  0.09 0.16 0  0.12 0.16 0  0.15 0.16 0  0.18 0.16 0  0.21 0.16 0  0.24 0.16 0  0.27 0.16 0  0.3 0.16 0  0.33 0.16 0  0.36 0.16 0  0.39 0.16 0  0.42 0.16 0  0.45 0.16 0  0.48 0.16 0  0.51 0.16 0  0.54 0.16 0  0.57 0.16 0  0.6 0.16 0  0.63 0.16 0  0.66 0.16 0  0.6899999999999999 0.16 0  0.72 0.16 0  0.75 0.16 0  0.78 0.16 0  0.8100000000000001 0.16 0  0.84 0.16 0  0.87 0.16 0  0.9 0.16 0  0.93 0.16 0  0.96 0.16 0  0.99 0.16 0  1.02 0.16 0  1.05 0.16 0  1.08 0.16 0  1.11 0.16 0  1.14 0.16 0  1.17 0.16 0  1.2 0.16 0  1.23 0.16 0  1.26 0.16 0  1.29 0.16 0  1.32 0.16 0  1.35 0.16 0  1.38 0.16 0  1.41 0.16 0  1.44 0.16 0  1.47 0.16 0  1.5 0.16 0  0 0.18 0  0.03 0.18 0  0.06 0.18 0  0.09 0.18 0  0.12 0.18 0  0.15 0.18 0  0.18 0.18 0  0.21 0.18 0  0.24 0.18 0  0.27 0.18 0  0.3 0.18 0  0.33 0.18 0  0.36 0.18 0  0.39 0.18 0  0.42 0.18 0  0.45 0.18 0  0.48 0.18 0  0.51 0.18 0  0.54 0.18 0  0.57 0.18 0  0.6 0.18 0  0.63 0.18 0  0.66 0.18 0  0.6899999999999999 0.18 0  0.72 0.18 0  0.75 0.18 0  0.78 0.18 0  0.8100000000000001 0.18 0  0.84 0.18 0  0.87 0.18 0  0.9 0.18 0  0.93 0.18 0  0.96 0.18 0  0.99 0.18 0  1.02 0.18 0  1.05 0.18 0  1.08 0.18 0  1.11 0.18 0  1.14 0.18 0  1.17 0.18 0  1.2 0.18 0  1.23 0.18 0  1.26 0.18 0  1.29 0.18 0  1.32 0.18 0  1.35 0.18 0  1.38 0.18 0  1.41 0.18 0  1.44 0.18 0  1.47 0.18 0  1.5 0.18 0  0 0.2 0  0.03 0.2 0  0.06 0.2 0  0.09 0.2 0  0.12 0.2 0  0.15 0.2 0  0.18 0.2 0  0.21 0.2 0  0.24 0.2 0  0.27 0.2 0  0.3 0.2 0  0.33 0.2 0  0.36 0.2 0  0.39 0.2 0  0.42 0.2 0  0.45 0.2 0  0.48 0.2 0  0.51 0.2 0  0.54 0.2 0  0.57 0.2 0  0.6 0.2 0  0.63 0.2 0  0.66 0.2 0  0.6899999999999999 0.2 0  0.72 0.2 0  0.75 0.2 0  0.78 0.2 0  0.8100000000000001 0.2 0  0.84 0.2 0  0.87 0.2 0  0.9 0.2 0  0.93 0.2 0  0.96 0.2 0  0.99 0.2 0  1.02 0.2 0  1.05 0.2 0  1.08 0.2 0  1.11 0.2 0  1.14 0.2 0  1.17 0.2 0  1.2 0.2 0  1.23 0.2 0  1.26 0.2 0  1.29 0.2 0  1.32 0.2 0  1.35 0.2 0  1.38 0.2 0  1.41 0.2 0  1.44 0.2 0  1.47 0.2 0  1.5 0.2 0  0 0.22 0  0.03 0.22 0  0.06 0.22 0  0.09 0.22 0  0.12 0.22 0  0.15 0.22 0  0.18 0.22 0  0.21 0.22 0  0.24 0.22 0  0.27 0.22 0  0.3 0.22 0  0.33 0.22 0  0.36 0.22 0  0.39 0.22 0  0.42 0.22 0  0.45 0.22 0  0.48 0.22 0  0.51 0.22 0  0.54 0.22 0  0.57 0.22 0  0.6 0.22 0  0.63 0.22 0  0.66 0.22 0  0.6899999999999999 0.22 0  0.72 0.22 0  0.75 0.22 0  0.78 0.22 0  0.8100000000000001 0.22 0  0.84 0.22 0  0.87 0.22 0  0.9 0.22 0  0.93 0.22 0  0.96 0.22 0  0.99 0.22 0  1.02 0.22 0  1.05 0.22 0  1.08 0.22 0  1.11 0.22 0  1.14 0.22 0  1.17 0.22 0  1.2 0.22 0  1.23 0.22 0  1.26 0.22 0  1.29 0.22 0  1.32 0.22 0  1.35 0.22 0  1.38 0.22 0  1.41 0.22 0  1.44 0.22 0  1.47 0.22 0  1.5 0.22 0  0 0.24 0  0.03 0.24 0  0.06 0.24 0  0.09 0.24 0  0.12 0.24 0  0.15 0.24 0  0.18 0.24 0  0.21 0.24 0  0.24 0.24 0  0.27 0.24 0  0.3 0.24 0  0.33 0.24 0  0.36 0.24 0  0.39 0.24 0  0.42 0.24 0  0.45 0.24 0  0.48 0.24 0  0.51 0.24 0  0.54 0.24 0  0.57 0.24 0  0.6 0.24 0  0.63 0.24 0  0.66 0.24 0  0.6899999999999999 0.24 0  0.72 0.24 0  0.75 0.24 0  0.78 0.24 0  0.8100000000000001 0.24 0  0.84 0.24 0  0.87 0.24 0  0.9 0.24 0  0.93 0.24 0  0.96 0.24 0  0.99 0.24 0  1.02 0.24 0  1.05 0.24 0  1.08 0.24 0  1.11 0.24 0  1.14 0.24 0  1.17 0.24 0  1.2 0.24 0  1.23 0.24 0  1.26 0.24 0  1.29 0.24 0  1.32 0.24 0  1.35 0.24 0  1.38 0.24 0  1.41 0.24 0  1.44 0.24 0  1.47 0.24 0  1.5 0.24 0  0 0.26 0  0.03 0.26 0  0.06 0.26 0  0.09 0.26 0  0.12 0.26 0  0.15 0.26 0  0.18 0.26 0  0.21 0.26 0  0.24 0.26 0  0.27 0.26 0  0.3 0.26 0  0.33 0.26 0  0.36 0.26 0  0.39 0.26 0  0.42 0.26 0  0.45 0.26 0  0.48 0.26 0  0.51 0.26 0  0.54 0.26 0  0.57 0.26 0  0.6 0.26 0  0.63 0.26 0  0.66 0.26 0  0.6899999999999999 0.26 0  0.72 0.26 0  0.75 0.26 0  0.78 0.26 0  0.8100000000000001 0.26 0  0.84 0.26 0  0.87 0.26 0  0.9 0.26 0  0.93 0.26 0  0.96 0.26 0  0.99 0.26 0  1.02 0.26 0  1.05 0.26 0  1.08 0.26 0  1.11 0.26 0  1.14 0.26 0  1.17 0.26 0  1.2 0.26 0  1.23 0.26 0  1.26 0.26 0  1.29 0.26 0  1.32 0.26 0  1.35 0.26 0  1.38 0.26 0  1.41 0.26 0  1.44 0.26 0  1.47 0.26 0  1.5 0.26 0  0 0.28 0  0.03 0.28 0  0.06 0.28 0  0.09 0.28 0  0.12 0.28 0  0.15 0.28 0  0.18 0.28 0  0.21 0.28 0  0.24 0.28 0  0.27 0.28 0  0.3 0.28 0  0.33 0.28 0  0.36 0.28 0  0.39 0.28 0  0.42 0.28 0  0.45 0.28 0  0.48 0.28 0  0.51 0.28 0  0.54 0.28 0  0.57 0.28 0  0.6 0.28 0  0.63 0.28 0  0.66 0.28 0  0.6899999999999999 0.28 0  0.72 0.28 0  0.75 0.28 0  0.78 0.28 0  0.8100000000000001 0.28 0  0.84 0.28 0  0.87 0.28 0  0.9 0.28 0  0.93 0.28 0  0.96 0.28 0  0.99 0.28 0  1.02 0.28
[...]
<PointData  Scalars="sensitivity"> 
<DataArray  type="Float64"  Name="sensitivity"  format="ascii">-1.3040682015866155e-06  -1.8491932902754795e-05  -7.7011337794908403e-05  -1.9592542140425348e-04  -3.7558596364830991e-04  -5.9340015990555657e-04  -8.1725339387231550e-04  -1.0198081609744301e-03  -1.1849386484887360e-03  -1.3072441635717357e-03  -1.3882772438191286e-03  -1.4330607800689494e-03  -1.4480927313576374e-03  -1.4402773702483608e-03  -1.4162139055369132e-03  -1.3817315565979231e-03  -1.3416791385699675e-03  -1.2999018550288461e-03  -1.2593125638251106e-03  -1.2220049918446878e-03  -1.1893934093528281e-03  -1.1623696113583371e-03  -1.1414587945416008e-03  -1.1269520759673852e-03  -1.1190015149790695e-03  -1.1176767825973404e-03  -1.1229916131365062e-03  -1.1349083192709747e-03  -1.1533217499980126e-03  -1.1780159531172099e-03  -1.2085839355708073e-03  -1.2443070659442306e-03  -1.2840036746368810e-03  -1.3258670758331888e-03  -1.3673143964224412e-03  -1.4048613783422517e-03  -1.4340435717647470e-03  -1.4494248235515787e-03  -1.4447518891490007e-03  -1.4132962344177147e-03  -1.3483228218338075e-03  -1.2438904036328354e-03  -1.0965868141437137e-03  -9.0855614004276854e-04  -6.9136640849791649e-04  -4.6754811776047366e-04  -2.6763333900487287e-04  -1.2078859253265777e-04  -3.8162640142848151e-05  -5.4743282871520645e-06  -5.2700487246790562e-08  -9.3772979207660651e-06  -7.5528710521470719e-05  -3.0073882123934670e-04  -7.9007581328244259e-04  -1.5628158038673769e-03  -2.5319625476726885e-03  -3.5555391418094946e-03  -4.5026719985901964e-03  -5.2898922447377596e-03  -5.8844976035879095e-03  -6.2886772631121088e-03  -6.5226765912823371e-03  -6.6148481947721450e-03  -6.5964146285730114e-03  -6.4979289264419952e-03  -6.3468192051412842e-03  -6.1661700049451505e-03  -5.9744772413959273e-03  -5.7859048267372166e-03  -5.6107542321604427e-03  -5.4560669326535974e-03  -5.3263303006503135e-03  -5.2242089023129832e-03  -5.1511896709477232e-03  -5.1080588413060079e-03  -5.0951943538116665e-03  -5.1127094701311432e-03  -5.1604929382572636e-03  -5.2381616093108568e-03  -5.3448989908607327e-03  -5.4791305324791931e-03  -5.6380069785776079e-03  -5.8167269256392826e-03  -6.0077926056228276e-03  -6.2003070351074642e-03  -6.3793772114982784e-03  -6.5256966904338456e-03  -6.6154593141559154e-03  -6.6209734186580263e-03  -6.5120568919154317e-03  -6.2580181877412884e-03  -5.8305029137919176e-03  -5.2102204213480734e-03  -4.3985675198191980e-03  -3.4357220739741562e-03  -2.4120801293942076e-03  -1.4582817017827451e-03  -7.1405143936349215e-04  -2.6082561661911971e-04  -6.2280050411521982e-05  -3.6011313394088183e-06  -2.7048777492613550e-05  -1.4688816258838790e-04  -4.3695591199771242e-04  -1.0518857790356676e-03  -1.9935301212818113e-03  -3.1423008269776970e-03  -4.3332758049984405e-03  -5.4196321353421201e-03  -6.3114840590071056e-03  -6.9785080502734707e-03  -7.4271397788382033e-03  -7.6808965572605940e-03  -7.7717572986137047e-03  -7.7356381033407088e-03  -7.6080890695178231e-03  -7.4209969338326787e-03  -7.2011057275457096e-03  -6.9698363490292370e-03  -6.7436105058631245e-03  -6.5343350355890426e-03  -6.3500482622300073e-03  -6.1957507845270612e-03  -6.0743143281881970e-03  -5.9872896342538810e-03  -5.9354840344796080e-03  -5.9192906947737088e-03  -5.9388351010729009e-03  -5.9940164203724023e-03  -6.0844715511192407e-03  -6.2094188101278038e-03  -6.3672969405668047e-03  -6.5551429841902162e-03  -6.7677480280206462e-03  -6.9967466801846524e-03  -7.2297960068828278e-03  -7.4499052280552758e-03  -7.6349576238477958e-03  -7.7575367092520258e-03  -7.7857235916667239e-03  -7.6846702363721686e-03  -7.4197958201299985e-03  -6.9582439590334874e-03  -6.2753963833068836e-03  -5.3650834220977488e-03  -4.2640035200909527e-03  -3.0716229356484936e-03  -1.9278632263222697e-03  -9.9343454010470691e-04  -3.9772044691274282e-04  -1.3062338348249450e-04  -1.6358663033237236e-05  -4.4256708207743485e-05  -2.4904146244797643e-04  -6.5034458244761820e-04  -1.4064118308872295e-03  -2.4504403038915702e-03  -3.6393203162928714e-03  -4.8257898479536323e-03  -5.8722130915465675e-03  -6.7045149373655879e-03  -7.3121939159726951e-03  -7.7097546167236184e-03  -7.9194146299281509e-03  -7.9709398069623145e-03  -7.8998946571415801e-03  -7.7421271597252674e-03  -7.5294078524631089e-03  -7.2880534170987211e-03  -7.0391170235045370e-03  -6.7987779592047336e-03  -6.5786671557270995e-03  -6.3863880955727682e-03  -6.2263807683825036e-03  -6.1009703735319994e-03  -6.0113001337957486e-03  -5.9579451534927672e-03  -5.9412001716521471e-03  -5.9611665234685285e-03  -6.0177723161208493e-03  -6.1107727779268588e-03  -6.2396588900763056e-03  -6.4033275457664567e-03  -6.5994020712665967e-03  -6.8232478638678550e-03  -7.0669423156218382e-03  -7.3184406050817614e-03  -7.5610463867067075e-03  -7.7729441049646138e-03  -7.9267921638084948e-03  -7.9904112659160142e-03  -7.9291593586759100e-03  -7.7122884409100527e-03  -7.3072671054096481e-03  -6.6860772766312148e-03  -5.8334279280927307e-03  -4.7646091910908692e-03  -3.5756923224646840e-03  -2.3871836987547162e-03  -1.3310946631839558e-03  -5.7873682704428814e-04  -2.1194250133375187e-04  -3.4284570735567936e-05  -4.1166687026972996e-05  -3.7461311095027944e-04  -1.0708120521514335e-03  -2.1167980385601330e-03  -3.2647027622188171e-03  -4.4326897138547844e-03  -5.5611802098043360e-03  -6.5005900438556401e-03  -7.2092132528943772e-03  -7.7119913647448841e-03  -8.0272585433917992e-03  -8.1682641849322047e-03  -8.1594514144572357e-03  -8.0363119488601215e-03  -7.8352241681470865e-03  -7.5871638192848328e-03  -7.3171567193468555e-03  -7.0453443845044841e-03  -6.7873939550046614e-03  -6.5544248566819343e-03  -6.3532576568225193e-03  -6.1873432240451848e-03  -6.0580776162625100e-03  -5.9659531131377973e-03  -5.9112114686335595e-03  -5.8940296364267944e-03  -5.9144823311996332e-03  -5.9725176832558496e-03  -6.0680279352243321e-03  -6.2008930413928083e-03  -6.3707341057686207e-03  -6.5761539131844139e-03  -6.8134997082887902e-03  -7.0755790987315258e-03  -7.3508997178757963e-03  -7.6234618918052119e-03  -7.8720850108927581e-03  -8.0700505278042088e-03  -8.1849691777526271e-03  -8.1839989345373048e-03  -8.0391889986156095e-03  -7.7229161341618004e-03  -7.2086454522516342e-03  -6.4908566189109179e-03  -5.5128880537170652e-03  -4.3849740372361055e-03  -3.2387733229226790e-03  -2.0503635657581950e-03  -9.5947794094228907e-04  -2.8032781695283402e-04  -4.0976154977798676e-05  -4.5283959295547878e-05  -7.0889812353407871e-04  -2.6702932959989005e-03  -5.0134137891641650e-03  -6.0013754796456303e-03  -6.3993898143166203e-03  -6.9052800743513894e-03  -7.4342968399306727e-03  -7.8864742472289379e-03  -8.2308441194653692e-03  -8.4394447982520746e-03  -8.4910113062289117e-03  -8.4008860022841726e-03  -8.2075505856397425e-03  -7.9492276448260169e-03  -7.6550622129902598e-03  -7.3476798871576115e-03  -7.0459519027786669e-03  -6.7651015332355095e-03  -6.5157394646850981e-03  -6.3035943892761244e-03  -6.1306119526111959e-03  -5.9967935311552902e-03  -5.9017303721129550e-03  -5.8452856537603995e-03  -5.8275624210145493e-03  -5.8486295662219636e-03  -5.9084131008107603e-03  -6.0068956325514712e-03  -6.1444194366963405e-03  -6.3216261911609442e-03  -6.5385953763277653e-03  -6.7931590316645842e-03  -7.0790617228946836e-03  -7.3854834484275702e-03  -7.6970017629678653e-03  -7.9936553503014308e-03  -8.2513750958705806e-03  -8.4351927904419248e-03  -8.5120538347873559e-03  -8.4475419590176182e-03  -8.2905109955388155e-03  -7.9784143616152530e-03  -7.6441768961739457e-03  -7.2053476538285434e-03  -6.8547015288639096e-03  -6.3438835019054250e-03  -4.3704928811165956e-03  -1.8911111552356505e-03  -3.8667025701651645e-04  -2.7511929164752627e-05  -5.9566711968603184e-04  -3.0386113668922636e-03  -1.0718859761292020e-02  -1.9683471042231629e-02  -2.2421617348491681e-02  -1.8568824222186343e-02  -1.3465275820847191e-02  -1.0057883886139296e-02  -8.9564526405140881e-03  -8.9015251695313182e-03  -8.9563111643377463e-03  -8.8948350735858304e-03  -8.6981209894527352e-03  -8.4142880418969328e-03  -8.0850895683056093e-03  -7.7346255877676394e-03  -7.3812283358160331e-03  -7.0423116361063506e-03  -6.7331446384243298e-03  -6.4640850976773641e-03  -6.2393721177349988e-03  -6.0586629510449644e-03  -5.9199030345632392e-03  -5.8215120975894383e-03  -5.7630304183606427e-03  -5.7446415126025038e-03  -5.7664692022905530e-03  -5.8283165484313820e-03  -5.9300890532634869e-03  -6.0725776288728878e-03  -6.2577985092937185e-03  -6.4880326430004284e-03  -6.7633925957124984e-03  -7.0786808687012511e-03  -7.4234638632327309e-03  -7.7825034907336261e-03  -8.1402570785894905e-03  -8.4741119895456567e-03  -8.7419423245964408e-03  -8.9212688556925667e-03  -8.9791528746114256e-03  -9.1737286629759596e-03  -9.5129765686604653e-03  -1.1081249039140043e-02  -1.3797886485114290e-02  -1.7915818997987699e-02  -2.2275317590109655e-02  -2.0285215806117921e-02  -1.1917789621087010e-02  -2.5285572793250807e-03  -9.3222360970869755e-05  -1.8126425290841003e-03  -1.8763412093734864e-02  -3.1522723433717738e-02  -3.1517525195709273e-02  -3.1517398813101741e-02  -3.1518461817302529e-02  -3.1495161982675386e-02  -2.5037395033905601e-02  -1.4406108888437465e-02  -1.0396075628669307e-02  -9.6669810494747297e-03  -9.3989996344690709e-03  -9.0499910268925926e-03  -8.6514057252129236e-03  -8.2394276116494296e-03  -7.8237987554580501e-03  -7.4158461568513941e-03  -7.0319930615033019e-03  -6.6888370105027059e-03  -6.3972200021186710e-03  -6.1592643558224464e-03  -5.9710311969980653e-03  -5.8274196367166589e-03  -5.7254147191611740e-03  -5.6644977803585218e-03  -5.6452840212947207e-03  -5.6680829263744664e-03  -5.7323754077283056e-03  -5.8375940807488830e-03  -5.9847891487272795e-03  -6.1777713087718166e-03  -6.4220884308842765e-03  -6.7215185659881280e-03  -7.0720205083653091e-03  -7.4624561305518559e-03  -7.8785088449241716e-03  -8.3092444033807389e-03  -8.7284455429783268e-03  -9.1311312894429321e-03  -9.4836190138872147e-03  -9.8522367836919641e-03  -1.1606236316671100e-02  -1.5073011597361385e-02  -2.3237325939466966e-02  -3.1575988900534611e-02  -3.1524383726396731e-02  -3.1509444292530227e-02  -3.1513886903385212e-02  -3.1518996125639999e-02  -1.9165118876635117e-02  -1.7581012955034594e-03  -9.4113079817966239e-03  -3.1518062427624935e-02  -3.1523993752844370e-02  -3.1524771217093454e-02  -3.1524903555666124e-02  -3.1525144935987341e-02  -3.1516463929112178e-02  -3.1527592987345948e-02  -3.1474985254909167e-02  -1.9250467429568978e-02  -1.2033075176752941e-02  -1.0165028527365406e-02  -9.4666917700227202e-03  -8.9108921070809883e-03  -8.4090987561168430e-03  -7.9209434842253193e-03  -7.4496600236687617e-03  -7.0119316968118746e-03  -6.6283365437890323e-03  -6.3119511893189794e-03  -6.0615550992651123e-03  -5.8672897868439896e-03  -5.7194949999883459e-03  -5.6135574496667985e-03  -5.5495802044697529e-03  -5.5292866400097956e-03  -5.5534193691998499e-03  -5.6207913759595890e-03  -5.7295478003161204e-03  -5.8804771103053224e-03  -6.0795745641184324e-03  -6.3372869175856751e-03  -6.6638109798686741e-03  -7.0570995163594464e-03  -7.5001811480042502e-03  -7.9833386430648128e-03  -8.4883414859972545e-03  -9.0405830920291183e-03  -9.7021106627070610e-03  -1.0597777857402206e-02  -1.2925316443667897e-02  -1.9229017671165201e-02  -3.1404170442814523e-02  -3.1501314134946556e-02  -3.1518495369012696e-02  -3.1527290661496454e-02  -3.1522740859442747e-02  -3.1523001908648374e-02  -3.1525418596868734e-02  -3.1521744934892099e-02  -7.1394244122993545e-03  -1.5741716825590158e-02  -3.1512622095070247e-02  -3.1519473972721750e-02  -3.1519022057963510e-02  -3.1518937677616495e-02  -3.1518812986582066e-02  -3.1521521217928075e-02  -3.1524629605912333e-02  -3.1512027965473963e-02  -3.1477226030936001e-02  -2.4653222058963149e-02  -1.3798995979980565e-02  -1.0201776543661794e-02  -9.2203796061416897e-03  -8.6001048155592511e-03  -8.0268415731805307e-03  -7.4821260440150325e-03  -6.9788311415596950e-03  -6.5462782711973163e-03  -6.2040094988687431e-03  -5.9444475691452043e-03  -5.7475674204745487e-03  -5.5968789007069088e-03  -5.4863239076938476e-03  -5.4181166944823611e-03  -5.3962818041936806e-03  -5.4224161573350731e-03  -5.4941496197893607e-03  -5.6067616635513918e-03  -5.7596015310656936e-03  -5.9610719735569044e-03  -6.2293161149715630e-03  -6.5850852881191649e-03  -7.0330568622791086e-03  -7.5328714517452705e-03  -8.1057562354563788e-03  -8.6990846812507443e-03  -9.5361293319196037e-03  -1.1207420300183150e-02  -1.4508365615216977e-02  -2.3055329326919085e-02  -3.1549021758266078e-02  -3.1507643884129480e-02  -3.1519045927004254e-02  -3.1519591312836021e-02  -3.1516676056270447e-02  -3.1518075549870302e-02  -3.1520454434224722e-02  -3.1512527902430532e-02  -3.1509607653339683e-02  -1.5759817163628908e-02  -1.8330289756099221e-02  -3.1571956113687440e-02  -3.1506199253745752e-02  -3.1514944713275657e-02  -3.1514853478634960e-02  -3.1513558688168984e-02  -3.1514092196534699e-02  -3.1517540872455785e-02  -3.1522511636197625e-02  -3.1509654324171799e-02  -3.1515982600712943e-02  -3.0516551735653364e-02  -1.5604434258011888e-02  -1.0292234684083077e-02  -8.9289797398058625e-03  -8.1608926346279035e-03  -7.5214501917798765e-03  -6.9316045480722708e-03  -6.4355237139830717e-03  -6.0684703363290517e-03  -5.8069754279729442e-03  -5.6135789619835555e-03  -5.4617550743836247e-03  -5.3447841314968767e-03  -5.2701075925013054e-03  -5.2459932032903906e-03  -5.2752533751105240e-03  -5.3539910986815072e-03  -5.4716439180482745e-03  -5.6236412041573555e-03  -5.8211705303232476e-03  -6.0937910877012251e-03  -6.4773323990564404e-03  -7.0110322540512500e-03  -7.5834889719372167e-03  -8.3082208344561325e-03  -9.1833444898273969e-03  -1.1655448336662400e-02  -1.6371688928184754e-02  -2.7561119818350539e-02  -3.1501814282821679e-02  -3.1520293133403349e-02  -3.1522110011816248e-02  -3.1513995592322534e-02  -3.1516166613637778e-02  -3.1514751374497454e-02  -3.1512404565210907e-02  -3.1513959886799323e-02  -3.1507270366826337e-02  -3.1806953285499907e-02  -1.6624008307967193e-02  -2.8533162861347633e-02  -4.6146982111665048e-02  -3.5630970982860971e-02  -3.1522344138661423e-02  -3.1512907121688076e-02  -3.1512002564739468e-02  -3.1510758533019545e-02  -3.1510361101071097e-02  -3.1513767722788071e-02  -3.1521743383256071e-02  -3.1519535269536422e-02  -3.1529184249930696e-02  -3.1502883877735449e-02  -1.9116928844353277e-02  -1.1380279254142929e-02  -8.7070007864886393e-03  -7.6958950673584221e-03  -6.9141107379739799e-03  -6.3082542115797365e-03  -5.9150600687075585e-03  -5.6596451222882312e-03  -5.4770219832045389e-03  -5.3246832361929404e-03  -5.1962867072001635e-03  -5.1109285397721704e-03  -5.0833955184285060e-03  -5.1172225009343949e-03  -5.2092893600955616e-03  -5.3369143565102639e-03  -5.4871019869427223e-03  -5.6765448870796644e-03  -5.9488800885826162e-03  -6.3669606563062399e-03  -7.0787404356149981e-03  -7.8650051917283723e-03  -9.4303476976529618e-03  -1.2439081960203628e-02  -1.8971808190733630e-02  -3.1381753407664359e-02  -3.1539585122246069e-02  -3.1527820523248172e-02  -3.1515845581173867e-02  -3.1512756663579000e-02  -3.1511231108218393e-02  -3.1511445535684871e-02  -3.1511289918921208e-02  -3.1512504049482623e-02  -3.1528470352697180e-02  -3.7739015873583776e-02  -4.7928844470819458e-02  -2.5075133632456493e-02  -3.5080451946834526e-02  -6.0547505229364952e-02  -4.6021235172543355e-02  -3.5291276975928466e-02  -3.1520526054868117e-02  -3.1513813187715990e-02  -3.1510340773969095e-02  -3.1508678660676803e-02  -3.1507763108435463e-02  -3.1511079813291230e-02  -3.1520257046930782e-02  -3.1521832913785394e-02  -3.1514067628988784e-02  -3.1501272106100695e-02  -2.6637916026032285e-02  -1.5742878126608215e-02  -1.0382115887800778e-02  -7.8723798363062557e-03  -6.6725433096446237e-03  -6.0655347192988237e-03  -5.7197268553545984e-03  -5.4978313767882585e-03  -5.3145648376810330e-03  -5.1524020012718025e-03  -5.0460125031167070e-03  -5.0134650959813972e-03  -5.0560824382576150e-03  -5.1801106082908152e-03  -5.3461811484970014e-03  -5.5373216944075545e-03  -5.7978166297802218e-03  -6.2111906536734948e-03  -6.9523528317777007e-03  -8.7091587145863587e-03  -1.1304528405849324e-02  -1.5578200512562094e-02  -2.5174054797977956e-02  -3.1436462829200144e-02  -3.1489668835857458e-02  -3.1523095301303442e-02  -3.1518444063942372e-02  -3.1512560861981537e-02  -3.1509102698752886e-02  -3.1508612048273307e-02  -3.1511598662937450e-02  -3.1513195037477140e-02  -3.1528607154512840e-02  -3.6359874803169871e-02  -4.6460657185109257e-02  -6.0499943825404592e-02  -3.3666421898411250e-02  -3.4013963125365559e-02  -6.2913285963481641e-02  -5.0483090382700858e-02  -3.9846979435275778e-02  -3.2803748026457413e-02  -3.1516942047719584e-02  -3.1513280073361308e-02  -3.1509261728689127e-02  -3.1507138840485518e-02  -3.1506282377354658e-02  -3.1508814339954595e-02  -3.1518647861377432e-02  -3.1523124881771850e-02  -3.1510386626517298e-02  -3.1515612057317476e-02  -3.1526974015160997e-02  -2.8268371700340900e-02  -1.9391896833677334e-02  -1.4286019425835723e-02  -1.1663292565143998e-02  -1.0093473149074725e-02  -9.1160411265828901e-03  -8.4335451150950314e-03  -7.9627320305671323e-03  -7.7289566425119017e-03  -7.6762069607396958e-03  -7.7844001255157422e-03  -8.1079466902526688e-03  -8.5759806998576167e-03  -9.2018278077123684e-03  -1.0176256341418260e-02  -1.1696959904316738e-02  -1.4202476991401420e-02  -1.8955940239053840e-02  -2.7409437636419592e-02  -3.1548874184330687e-02  -3.1558723060718274e-02  -3.1515837274395192e-02  -3.1513968401229615e-02  -3.1509733341014805e-02  -3.1511200232370792e-02  -3.1508273053722766e-02  -3.1507376951787382e-02  -3.1511069697679833e-02  -3.1512445037266357e-02  -3.1520013877363237e-02  -3.3329935513199502e-02  -3.9794368190953479e-02  -4.9832576917441987e-02  -6.2142895604966976e-02  -3.5179829656218957e-02  -2.5772847163029286e-02  -5.2481246391637960e-02  -4.5935862267196662e-02  -3.9537006491421549e-02  -3.4229813970230658e-02  -3.1530393707317743e-02  -3.1517972796077515e-02  -3.1512263830101257e-02  -3.1508263461082507e-02  -3.1506426746655873e-02  -3.1505267870195780e-02  -3.1507165017183481e-02  -3.1516397187785331e-02  -3.1524835409067392e-02  -3.1522755982324402e-02  -3.1517427842506995e-02  -3.1522477763031818e-02  -3.1531685302846023e-02  -3.1485625698731534e-02  -3.1475154079243776e-02  -3.1525247411118319e-02  -3.1391184858888622e-02  -3.0976319302037935e-02  -2.9807365261811016e-02  -2.8997118325794786e-02  -2.8737516995234511e-02  -2.8949532963066890e-02  -2.9707202765482058e-02  -3.0879513324596448e-02  -3.1369143285351390e-02  -3.1502389204526957e-02  -3.1518331500084922e-02  -3.1457187025520916e-02  -3.1520236393749797e-02  -3.1524313944588538e-02  -3.1519545642799671e-02  -3.1537477174284644e-02  -3.1522643830822400e-02  -3.1509008678717865e-02  -3.1508456876201997e-02  -3.1506686310906556e-02  -3.1506763063297208e-02  -3.1509264818320816e-02  -3.1514629530865382e-02  -3.1512055204600799e-02  -3.1537032266533073e-02  -3.4120907677482042e-02  -3.8781366980681749e-02  -4.4791802399287824e-02  -5.1202091559084256e-02  -2.9052882938430696e-02  -1.6697282073951374e-02  -3.6182088462142853e-02  -3.5932851862673344e-02  -3.4726537825828192e-02  -3.2990476631741858e-02  -3.1554459169738300e-02  -3.1518459882610698e-02  -3.1517765404316153e-02  -3.1511750115126802e-02  -3.1507884740380930e-02  -3.1506166207625516e-02  -3.1504928718200556e-02  -3.1505645279710143e-02  -3.1511706279867061e-02  -3.1520763998827667e-02  -3.1526888566515712e-02  -3.1530519063128239e-02  -3.1531668604412269e-02  -3.1524481913496098e-02  -3.1516248305375610e-02  -3.1523359102210276e-02  -3.1522497865169412e-02  -3.1514673360042357e-02  -3.1518998177222646e-02  -3.1517849397142604e-02  -3.1516661357025383e-02  -3.1517426945201446e-02  -3.1519572374901987e-02  -3.1520568758160665e-02  -3.1517239885122457e-02  -3.1520938922519302e-02  -