<?xml version="1.0"?>
<VTKFile type="UnstructuredGrid"  version="0.1"  >
<UnstructuredGrid>
<Piece  NumberOfPoints="2601" NumberOfCells="5000">
<Points>
<DataArray  type="Float64"  NumberOfComponents="3"  format="ascii">0 0 0  0.03 0 0  0.06 0 0  0.09 0 0  0.12 0 0  0.15 0 0  0.18 0 0  0.21 0 0  0.24 0 0  0.27 0 0  0.3 0 0  0.33 0 0  0.36 0 0  0.39 0 0  0.42 0 0  0.45 0 0  0.48 0 0  0.51 0 0  0.54 0 0  0.57 0 0  0.6 0 0  0.63 0 0  0.66 0 0  0.6899999999999999 0 0  0.72 0 0  0.75 0 0  0.78 0 0  0.8100000000000001 0 0  0.84 0 0  0.87 0 0  0.9 0 0  0.93 0 0  0.96 0 0  0.99 0 0  1.02 0 0  1.05 0 0  1.08 0 0  1.11 0 0  1.14 0 0  1.17 0 0  1.2 0 0  1.23 0 0  1.26 0 0  1.29 0 0  1.32 0 0  1.35 0 0  1.38 0 0  1.41 0 0  1.44 0 0  1.47 0 0  1.5 0 0  0 0.02 0  0.03 0.02 0  0.06 0.02 0  0.09 0.02 0  0.12 0.02 0  0.15 0.02 0  0.18 0.02 0  0.21 0.02 0  0.24 0.02 0  0.27 0.02 0  0.3 0.02 0  0.33 0.02 0  0.36 0.02 0  0.39 0.02 0  0.42 0.02 0  0.45 0.02 0  0.48 0.02 0  0.51 0.02 0  0.54 0.02 0  0.57 0.02 0  0.6 0.02 0  0.63 0.02 0  0.66 0.02 0  0.6899999999999999 0.02 0  0.72 0.02 0  0.75 0.02 0  0.78 0.02 0  0.8100000000000001 0.02 0  0.84 0.02 0  0.87 0.02 0  0.9 0.02 0  0.93 0.02 0  0.96 0.02 0  0.99 0.02 0  1.02 0.02 0  1.05 0.02 0  1.08 0.02 0  1.11 0.02 0  1.14 0.02 0  1.17 0.02 0  1.2 0.02 0  1.23 0.02 0  1.26 0.02 0  1.29 0.02 0  1.32 0.02 0  1.35 0.02 0  1.38 0.02 0  1.41 0.02 0  1.44 0.02 0  1.47 0.02 0  1.5 0.02 0  0 0.04 0  0.03 0.04 0  0.06 0.04 0  0.09 0.04 0  0.12 0.04 0  0.15 0.04 0  0.18 0.04 0  0.21 0.04 0  0.24 0.04 0  0.27 0.04 0  0.3 0.04 0  0.33 0.04 0  0.36 0.04 0  0.39 0.04 0  0.42 0.04 0  0.45 0.04 0  0.48 0.04 0  0.51 0.04 0  0.54 0.04 0  0.57 0.04 0  0.6 0.04 0  0.63 0.04 0  0.66 0.04 0  0.6899999999999999 0.04 0  0.72 0.04 0  0.75 0.04 0  0.78 0.04 0  0.8100000000000001 0.04 0  0.84 0.04 0  0.87 0.04 0  0.9 0.04 0  0.93 0.04 0  0.96 0.04 0  0.99 0.04 0  1.02 0.04 0  1.05 0.04 0  1.08 0.04 0  1.11 0.04 0  1.14 0.04 0  1.17 0.04 0  1.2 0.04 0  1.23 0.04 0  1.26 0.04 0  1.29 0.04 0  1.32 0.04 0  1.35 0.04 0  1.38 0.04 0  1.41 0.04 0  1.44 0.04 0  1.47 0.04 0  1.5 0.04 0  0 0.06 0  0.03 0.06 0  0.06 0.06 0  0.09 0.06 0  0.12 0.06 0  0.15 0.06 0  0.18 0.06 0  0.21 0.06 0  0.24 0.06 0  0.27 0.06 0  0.3 0.06 0  0.33 0.06 0  0.36 0.06 0  0.39 0.06 0  0.42 0.06 0  0.45 0.06 0  0.48 0.06 0  0.51 0.06 0  0.54 0.06 0  0.57 0.06 0  0.6 0.06 0  0.63 0.06 0  0.66 0.06 0  0.6899999999999999 0.06 0  0.72 0.06 0  0.75 0.06 0  0.78 0.06 0  0.8100000000000001 0.06 0  0.84 0.06 0  0.87 0.06 0  0.9 0.06 0  0.93 0.06 0  0.96 0.06 0  0.99 0.06 0  1.02 0.06 0  1.05 0.06 0  1.08 0.06 0  1.11 0.06 0  1.14 0.06 0  1.17 0.06 0  1.2 0.06 0  1.23 0.06 0  1.26 0.06 0  1.29 0.06 0  1.32 0.06 0  1.35 0.06 0  1.38 0.06 0  1.41 0.06 0  1.44 0.06 0  1.47 0.06 0  1.5 0.06 0  0 0.08 0  0.03 0.08 0  0.06 0.08 0  0.09 0.08 0  0.12 0.08 0  0.15 0.08 0  0.18 0.08 0  0.21 0.08 0  0.24 0.08 0  0.27 0.08 0  0.3 0.08 0  0.33 0.08 0  0.36 0.08 0  0.39 0.08 0  0.42 0.08 0  0.45 0.08 0  0.48 0.08 0  0.51 0.08 0  0.54 0.08 0  0.57 0.08 0  0.6 0.08 0  0.63 0.08 0  0.66 0.08 0  0.6899999999999999 0.08 0  0.72 0.08 0  0.75 0.08 0  0.78 0.08 0  0.8100000000000001 0.08 0  0.84 0.08 0  0.87 0.08 0  0.9 0.08 0  0.93 0.08 0  0.96 0.08 0  0.99 0.08 0  1.02 0.08 0  1.05 0.08 0  1.08 0.08 0  1.11 0.08 0  1.14 0.08 0  1.17 0.08 0  1.2 0.08 0  1.23 0.08 0  1.26 0.08 0  1.29 0.08 0  1.32 0.08 0  1.35 0.08 0  1.38 0.08 0  1.41 0.08 0  1.44 0.08 0  1.47 0.08 0  1.5 0.08 0  0 0.1 0  0.03 0.1 0  0.06 0.1 0  0.09 0.1 0  0.12 0.1 0  0.15 0.1 0  0.18 0.1 0  0.21 0.1 0  0.24 0.1 0  0.27 0.1 0  0.3 0.1 0  0.33 0.1 0  0.36 0.1 0  0.39 0.1 0  0.42 0.1 0  0.45 0.1 0  0.48 0.1 0  0.51 0.1 0  0.54 0.1 0  0.57 0.1 0  0.6 0.1 0  0.63 0.1 0  0.66 0.1 0  0.6899999999999999 0.1 0  0.72 0.1 0  0.75 0.1 0  0.78 0.1 0  0.8100000000000001 0.1 0  0.84 0.1 0  0.87 0.1 0  0.9 0.1 0  0.93 0.1 0  0.96 0.1 0  0.99 0.1 0  1.02 0.1 0  1.05 0.1 0  1.08 0.1 0  1.11 0.1 0  1.14 0.1 0  1.17 0.1 0  1.2 0.1 0  1.23 0.1 0  1.26 0.1 0  1.29 0.1 0  1.32 0.1 0  1.35 0.1 0  1.38 0.1 0  1.41 0.1 0  1.44 0.1 0  1.47 0.1 0  1.5 0.1 0  0 0.12 0  0.03 0.12 0  0.06 0.12 0  0.09 0.12 0  0.12 0.12 0  0.15 0.12 0  0.18 0.12 0  0.21 0.12 0  0.24 0.12 0  0.27 0.12 0  0.3 0.12 0  0.33 0.12 0  0.36 0.12 0  0.39 0.12 0  0.42 0.12 0  0.45 0.12 0  0.48 0.12 0  0.51 0.12 0  0.54 0.12 0  0.57 0.12 0  0.6 0.12 0  0.63 0.12 0  0.66 0.12 0  0.6899999999999999 0.12 0  0.72 0.12 0  0.75 0.12 0  0.78 0.12 0  0.8100000000000001 0.12 0  0.84 0.12 0  0.87 0.12 0  0.9 0.12 0  0.93 0.12 0  0.96 0.12 0  0.99 0.12 0  1.02 0.12 0  1.05 0.12 0  1.08 0.12 0  1.11 0.12 0  1.14 0.12 0  1.17 0.12 0  1.2 0.12 0  1.23 0.12 0  1.26 0.12 0  1.29 0.12 0  1.32 0.12 0  1.35 0.12 0  1.38 0.12 0  1.41 0.12 0  1.44 0.12 0  1.47 0.12 0  1.5 0.12 0  0 0.14 0  0.03 0.14 0  0.06 0.14 0  0.09 0.14 0  0.12 0.14 0  0.15 0.14 0  0.18 0.14 0  0.21 0.14 0  0.24 0.14 0  0.27 0.14 0  0.3 0.14 0  0.33 0.14 0  0.36 0.14 0  0.39 0.14 0  0.42 0.14 0  0.45 0.14 0  0.48 0.14 0  0.51 0.14 0  0.54 0.14 0  0.57 0.14 0  0.6 0.14 0  0.63 0.14 0  0.66 0.14 0  0.6899999999999999 0.14 0  0.72 0.14 0  0.75 0.14 0  0.78 0.14 0  0.8100000000000001 0.14 0  0.84 0.14 0  0.87 0.14 0  0.9 0.14 0  0.93 0.14 0  0.96 0.14 0  0.99 0.14 0  1.02 0.14 0  1.05 0.14 0  1.08 0.14 0  1.11 0.14 0  1.14 0.14 0  1.17 0.14 0  1.2 0.14 0  1.23 0.14 0  1.26 0.14 0  1.29 0.14 0  1.32 0.14 0  1.35 0.14 0  1.38 0.14 0  1.41 0.14 0  1.44 0.14 0  1.47 0.14 0  1.5 0.14 0  0 0.16 0  0.03 0.16 0  0.06 0.16 0  0.09 0.16 0  0.12 0.16 0  0.15 0.16 0  0.18 0.16 0  0.21 0.16 0  0.24 0.16 0  0.27 0.16 0  0.3 0.16 0  0.33 0.16 0  0.36 0.16 0  0.39 0.16 0  0.42 0.16 0  0.45 0.16 0  0.48 0.16 0  0.51 0.16 0  0.54 0.16 0  0.57 0.16 0  0.6 0.16 0  0.63 0.16 0  0.66 0.16 0  0.6899999999999999 0.16 0  0.72 0.16 0  0.75 0.16 0  0.78 0.16 0  0.8100000000000001 0.16 0  0.84 0.16 0  0.87 0.16 0  0.9 0.16 0  0.93 0.16 0  0.96 0.16 0  0.99 0.16 0  1.02 0.16 0  1.05 0.16 0  1.08 0.16 0  1.11 0.16 0  1.14 0.16 0  1.17 0.16 0  1.2 0.16 0  1.23 0.16 0  1.26 0.16 0  1.29 0.16 0  1.32 0.16 0  1.35 0.16 0  1.38 0.16 0  1.41 0.16 0  1.44 0.16 0  1.47 0.16 0  1.5 0.16 0  0 0.18 0  0.03 0.18 0  0.06 0.18 0  0.09 0.18 0  0.12 0.18 0  0.15 0.18 0  0.18 0.18 0  0.21 0.18 0  0.24 0.18 0  0.27 0.18 0  0.3 0.18 0  0.33 0.18 0  0.36 0.18 0  0.39 0.18 0  0.42 0.18 0  0.45 0.18 0  0.48 0.18 0  0.51 0.18 0  0.54 0.18 0  0.57 0.18 0  0.6 0.18 0  0.63 0.18 0  0.66 0.18 0  0.6899999999999999 0.18 0  0.72 0.18 0  0.75 0.18 0  0.78 0.18 0  0.8100000000000001 0.18 0  0.84 0.18 0  0.87 0.18 0  0.9 0.18 0  0.93 0.18 0  0.96 0.18 0  0.99 0.18 0  1.02 0.18 0  1.05 0.18 0  1.08 0.18 0  1.11 0.18 0  1.14 0.18 0  1.17 0.18 0  1.2 0.18 0  1.23 0.18 0  1.26 0.18 0  1.29 0.18 0  1.32 0.18 0  1.35 0.18 0  1.38 0.18 0  1.41 0.18 0  1.44 0.18 0  1.47 0.18 0  1.5 0.18 0  0 0.2 0  0.03 0.2 0  0.06 0.2 0  0.09 0.2 0  0.12 0.2 0  0.15 0.2 0  0.18 0.2 0  0.21 0.2 0  0.24 0.2 0  0.27 0.2 0  0.3 0.2 0  0.33 0.2 0  0.36 0.2 0  0.39 0.2 0  0.42 0.2 0  0.45 0.2 0  0.48 0.2 0  0.51 0.2 0  0.54 0.2 0  0.57 0.2 0  0.6 0.2 0  0.63 0.2 0  0.66 0.2 0  0.6899999999999999 0.2 0  0.72 0.2 0  0.75 0.2 0  0.78 0.2 0  0.8100000000000001 0.2 0  0.84 0.2 0  0.87 0.2 0  0.9 0.2 0  0.93 0.2 0  0.96 0.2 0  0.99 0.2 0  1.02 0.2 0  1.05 0.2 0  1.08 0.2 0  1.11 0.2 0  1.14 0.2 0  1.17 0.2 0  1.2 0.2 0  1.23 0.2 0  1.26 0.2 0  1.29 0.2 0  1.32 0.2 0  1.35 0.2 0  1.38 0.2 0  1.41 0.2 0  1.44 0.2 0  1.47 0.2 0  1.5 0.2 0  0 0.22 0  0.03 0.22 0  0.06 0.22 0  0.09 0.22 0  0.12 0.22 0  0.15 0.22 0  0.18 0.22 0  0.21 0.22 0  0.24 0.22 0  0.27 0.22 0  0.3 0.22 0  0.33 0.22 0  0.36 0.22 0  0.39 0.22 0  0.42 0.22 0  0.45 0.22 0  0.48 0.22 0  0.51 0.22 0  0.54 0.22 0  0.57 0.22 0  0.6 0.22 0  0.63 0.22 0  0.66 0.22 0  0.6899999999999999 0.22 0  0.72 0.22 0  0.75 0.22 0  0.78 0.22 0  0.8100000000000001 0.22 0  0.84 0.22 0  0.87 0.22 0  0.9 0.22 0  0.93 0.22 0  0.96 0.22 0  0.99 0.22 0  1.02 0.22 0  1.05 0.22 0  1.08 0.22 0  1.11 0.22 0  1.14 0.22 0  1.17 0.22 0  1.2 0.22 0  1.23 0.22 0  1.26 0.22 0  1.29 0.22 0  1.32 0.22 0  1.35 0.22 0  1.38 0.22 0  1.41 0.22 0  1.44 0.22 0  1.47 0.22 0  1.5 0.22 0  0 0.24 0  0.03 0.24 0  0.06 0.24 0  0.09 0.24 0  0.12 0.24 0  0.15 0.24 0  0.18 0.24 0  0.21 0.24 0  0.24 0.24 0  0.27 0.24 0  0.3 0.24 0  0.33 0.24 0  0.36 0.24 0  0.39 0.24 0  0.42 0.24 0  0.45 0.24 0  0.48 0.24 0  0.51 0.24 0  0.54 0.24 0  0.57 0.24 0  0.6 0.24 0  0.63 0.24 0  0.66 0.24 0  0.6899999999999999 0.24 0  0.72 0.24 0  0.75 0.24 0  0.78 0.24 0  0.8100000000000001 0.24 0  0.84 0.24 0  0.87 0.24 0  0.9 0.24 0  0.93 0.24 0  0.96 0.24 0  0.99 0.24 0  1.02 0.24 0  1.05 0.24 0  1.08 0.24 0  1.11 0.24 0  1.14 0.24 0  1.17 0.24 0  1.2 0.24 0  1.23 0.24 0  1.26 0.24 0  1.29 0.24 0  1.32 0.24 0  1.35 0.24 0  1.38 0.24 0  1.41 0.24 0  1.44 0.24 0  1.47 0.24 0  1.5 0.24 0  0 0.26 0  0.03 0.26 0  0.06 0.26 0  0.09 0.26 0  0.12 0.26 0  0.15 0.26 0  0.18 0.26 0  0.21 0.26 0  0.24 0.26 0  0.27 0.26 0  0.3 0.26 0  0.33 0.26 0  0.36 0.26 0  0.39 0.26 0  0.42 0.26 0  0.45 0.26 0  0.48 0.26 0  0.51 0.26 0  0.54 0.26 0  0.57 0.26 0  0.6 0.26 0  0.63 0.26 0  0.66 0.26 0  0.6899999999999999 0.26 0  0.72 0.26 0  0.75 0.26 0  0.78 0.26 0  0.8100000000000001 0.26 0  0.84 0.26 0  0.87 0.26 0  0.9 0.26 0  0.93 0.26 0  0.96 0.26 0  0.99 0.26 0  1.02 0.26 0  1.05 0.26 0  1.08 0.26 0  1.11 0.26 0  1.14 0.26 0  1.17 0.26 0  1.2 0.26 0  1.23 0.26 0  1.26 0.26 0  1.29 0.26 0  1.32 0.26 0  1.35 0.26 0  1.38 0.26 0  1.41 0.26 0  1.44 0.26 0  1.47 0.26 0  1.5 0.26 0  0 0.28 0  0.03 0.28 0  0.06 0.28 0  0.09 0.28 0  0.12 0.28 0  0.15 0.28 0  0.18 0.28 0  0.21 0.28 0  0.24 0.28 0  0.27 0.28 0  0.3 0.28 0  0.33 0.28 0  0.36 0.28 0  0.39 0.28 0  0.42 0.28 0  0.45 0.28 0  0.48 0.28 0  0.51 0.28 0  0.54 0.28 0  0.57 0.28 0  0.6 0.28 0  0.63 0.28 0  0.66 0.28 0  0.6899999999999999 0.28 0  0.72 0.28 0  0.75 0.28 0  0.78 0.28 0  0.8100000000000001 0.28 0  0.84 0.28 0  0.87 0.28 0  0.9 0.28 0  0.93 0.28 0  0.96 0.28 0  0.99 0.28 0  1.02 0.28
[...]
<PointData  Scalars="sensitivity"> 
<DataArray  type="Float64"  Name="sensitivity"  format="ascii">-3.1369427174420959e-07  -7.5547286207350060e-06  -3.3207582139065369e-05  -8.6549434708679536e-05  -1.6751348323352269e-04  -2.6452591346159439e-04  -3.6251457293510532e-04  -4.5058167806430352e-04  -5.2360693518068758e-04  -5.8008544760502546e-04  -6.1980322528833762e-04  -6.4320981805934092e-04  -6.5209047769345762e-04  -6.4990564420925722e-04  -6.4087292155705269e-04  -6.2848519336134335e-04  -6.1474388834590742e-04  -6.0049713311471355e-04  -5.8621808471273715e-04  -5.7246240450373144e-04  -5.5986430629522896e-04  -5.4898271607939733e-04  -5.4024447132584971e-04  -5.3398014643287687e-04  -5.3045159589377501e-04  -5.2982908228073474e-04  -5.3214472943521147e-04  -5.3726097321149513e-04  -5.4486901638471988e-04  -5.5451569263756850e-04  -5.6566793399517293e-04  -5.7782937172430170e-04  -5.9066117213583231e-04  -6.0394670327513600e-04  -6.1722198425111046e-04  -6.2911676371721738e-04  -6.3687394287244943e-04  -6.3675775295114409e-04  -6.2551297041244078e-04  -6.0177009512928049e-04  -5.6587339206459818e-04  -5.1822952061293518e-04  -4.5808779979666583e-04  -3.8417458652453883e-04  -2.9703867143360046e-04  -2.0268361944111729e-04  -1.1482642962996958e-04  -4.9757299796143217e-05  -1.4479227775779090e-05  -1.4999478729103017e-06  -2.5680977163015324e-09  -4.2381597103924601e-06  -7.2071344285369997e-05  -3.0919520599830295e-04  -8.2635378076573944e-04  -1.6374842935135243e-03  -2.6246068838785097e-03  -3.6238224525956863e-03  -4.5162990093703479e-03  -5.2509652862583120e-03  -5.8190994085781838e-03  -6.2238973229418008e-03  -6.4698756781615520e-03  -6.5707772244438609e-03  -6.5575191099920150e-03  -6.4720762099310745e-03  -6.3517036869290217e-03  -6.2183333544359063e-03  -6.0804533001579579e-03  -5.9416604582540299e-03  -5.8066001861386222e-03  -5.6813904841115318e-03  -5.5717417754881579e-03  -5.4820458631129661e-03  -5.4157203443697477e-03  -5.3755958741419250e-03  -5.3637003217844835e-03  -5.3806988686750734e-03  -5.4254858136189021e-03  -5.4951483108591952e-03  -5.5852479115414654e-03  -5.6904413600505780e-03  -5.8056620167198213e-03  -5.9276176475517636e-03  -6.0550777024383435e-03  -6.1857774572275622e-03  -6.3096030503277363e-03  -6.4021364217637690e-03  -6.4264280884955569e-03  -6.3471679483515066e-03  -6.1478031631378985e-03  -5.8322598293312428e-03  -5.4069944329191216e-03  -4.8632861422313696e-03  -4.1792304022445267e-03  -3.3419571196624804e-03  -2.3879379471735459e-03  -1.4404493082958662e-03  -6.8225338624276126e-04  -2.3201583781538352e-04  -4.3411567441670896e-05  -1.0239472800096670e-06  -1.3647073623661621e-05  -1.6799227253182054e-04  -5.9966533012321564e-04  -1.5191640614339436e-03  -2.9359351342812009e-03  -4.6029491677144294e-03  -6.2231069615057925e-03  -7.6120926367752662e-03  -8.7176820454743752e-03  -9.5557793058326044e-03  -1.0147272671773927e-02  -1.0499525968690486e-02  -1.0627792034094592e-02  -1.0577847425798243e-02  -1.0418807404858951e-02  -1.0213205655289079e-02  -9.9952714393701757e-03  -9.7743579074097767e-03  -9.5523040072810570e-03  -9.3351174328476852e-03  -9.1329014787750479e-03  -8.9552397176989595e-03  -8.8091505855050888e-03  -8.6999769308378685e-03  -8.6323827961147636e-03  -8.6100213531891175e-03  -8.6344212366711286e-03  -8.7041240669082712e-03  -8.8145350790591777e-03  -8.9583318176433713e-03  -9.1263715000174418e-03  -9.3096720303634233e-03  -9.5025635888126639e-03  -9.7045452366604067e-03  -9.9162575678159327e-03  -1.0127373287769597e-02  -1.0302407647111739e-02  -1.0379935753985152e-02  -1.0297362258987136e-02  -1.0026894470961023e-02  -9.5833877655265767e-03  -8.9875675238025275e-03  -8.2247192720810592e-03  -7.2420742078654369e-03  -5.9835156452919284e-03  -4.4574024486503053e-03  -2.8271125581852789e-03  -1.4224670493133461e-03  -5.3259268157147095e-04  -1.3354136019855072e-04  -6.9453959055942583e-06  -2.5615161456370129e-05  -3.1950157277494534e-04  -1.0423548774418610e-03  -2.4485255618561241e-03  -4.4043124037166110e-03  -6.4370482327378974e-03  -8.1716961621612419e-03  -9.4931312304026398e-03  -1.0460394323696772e-02  -1.1167342080485121e-02  -1.1658441609638926e-02  -1.1927270090142911e-02  -1.1970229037693609e-02  -1.1830749201936450e-02  -1.1589872218844123e-02  -1.1320178212460268e-02  -1.1054099926372922e-02  -1.0791851042646088e-02  -1.0528695714932026e-02  -1.0270521544970752e-02  -1.0030601469386301e-02  -9.8209575913296449e-03  -9.6493426679061141e-03  -9.5211929261691339e-03  -9.4415407610466909e-03  -9.4147572412864120e-03  -9.4430732353865364e-03  -9.5253523864264594e-03  -9.6567150968412986e-03  -9.8287542895038188e-03  -1.0030217561877669e-02  -1.0249219268737749e-02  -1.0477954840734060e-02  -1.0717231490266604e-02  -1.0973795284436977e-02  -1.1244828104242864e-02  -1.1495255927028665e-02  -1.1650854360876270e-02  -1.1631389251597367e-02  -1.1408865401398535e-02  -1.1025505497533670e-02  -1.0533331675994666e-02  -9.9196532466545931e-03  -9.0955497452992837e-03  -7.9298767309076579e-03  -6.3021679879865702e-03  -4.2801807476735964e-03  -2.2916226754972477e-03  -9.0216318068014249e-04  -2.4677581882738607e-04  -1.6609476603130435e-05  -3.3550332403088672e-05  -6.0544341785627378e-04  -2.2558954344415573e-03  -5.1260443562204184e-03  -8.3403489053047557e-03  -1.0840808565082235e-02  -1.2248883137525887e-02  -1.2807679517230155e-02  -1.2963308394900805e-02  -1.3025148026138042e-02  -1.3073496205104155e-02  -1.3043429147026395e-02  -1.2864807799311727e-02  -1.2549865219001121e-02  -1.2178541401906646e-02  -1.1824414158894039e-02  -1.1506865247959743e-02  -1.1206124187993065e-02  -1.0904896164020664e-02  -1.0608095190075460e-02  -1.0333253087303243e-02  -1.0095240327724320e-02  -9.9019152215937215e-03  -9.7578834005599656e-03  -9.6678926372036535e-03  -9.6368074044105474e-03  -9.6677452085581553e-03  -9.7603998027216265e-03  -9.9102650194350939e-03  -1.0108401905820640e-02  -1.0341592879826382e-02  -1.0594553772485660e-02  -1.0856562660079295e-02  -1.1130297474567927e-02  -1.1432954351343966e-02  -1.1778003292789224e-02  -1.2140240751859309e-02  -1.2436910519855375e-02  -1.2571943509801758e-02  -1.2533298342481732e-02  -1.2434309607019960e-02  -1.2410348402612612e-02  -1.2467383028312719e-02  -1.2446786181546297e-02  -1.2039132147303686e-02  -1.0745767024943906e-02  -8.2279018608046074e-03  -4.8100498398072518e-03  -1.8576873286045906e-03  -4.1480487215264509e-04  -2.3838543944143259e-05  -4.5320670711056538e-05  -1.5769893869929598e-03  -6.5848327534681226e-03  -1.3257398954127591e-02  -1.8726652236436003e-02  -2.1781527340542995e-02  -2.2323085328582477e-02  -2.0851561478619031e-02  -1.8594987202470523e-02  -1.6671409547638929e-02  -1.5397515098163016e-02  -1.4549189880669802e-02  -1.3847735845360634e-02  -1.3183406779538076e-02  -1.2587948409076696e-02  -1.2107244120984127e-02  -1.1723859708628869e-02  -1.1379897334432903e-02  -1.1036498899633929e-02  -1.0696508308847453e-02  -1.0383576507136307e-02  -1.0116292094315598e-02  -9.9018780568028257e-03  -9.7428988228518542e-03  -9.6430097922533039e-03  -9.6073431033529867e-03  -9.6401671386778225e-03  -9.7426525225596961e-03  -9.9114758954028173e-03  -1.0137759446915008e-02  -1.0406293063909621e-02  -1.0697458442896841e-02  -1.0996101547462528e-02  -1.1306780734701165e-02  -1.1662816873748328e-02  -1.2108193420675820e-02  -1.2646357031310635e-02  -1.3201118897556485e-02  -1.3678846301366888e-02  -1.4134159721742845e-02  -1.4863611602329218e-02  -1.6201971853180973e-02  -1.8140446171242539e-02  -2.0240204698746371e-02  -2.1764912538098809e-02  -2.1639017559320704e-02  -1.8988049244242355e-02  -1.3338474379743250e-02  -5.5628982168190438e-03  -8.5093821511583484e-04  -2.3571793541258347e-05  -2.0392809473983742e-04  -5.0924226915125955e-03  -1.5336489539711647e-02  -2.3064773519244314e-02  -2.8028120309254334e-02  -3.1544234778263507e-02  -3.4192121309887295e-02  -3.4272298653658460e-02  -3.0612231414318271e-02  -2.5167631471837801e-02  -2.0576741133781606e-02  -1.7538483485816898e-02  -1.5539346075476712e-02  -1.4111169867129732e-02  -1.3082603581934381e-02  -1.2382066702403714e-02  -1.1896586762028944e-02  -1.1492604760268211e-02  -1.1092248257750814e-02  -1.0694688063107574e-02  -1.0332993589192638e-02  -1.0030604632346707e-02  -9.7927348742791985e-03  -9.6179234796480145e-03  -9.5074802132514655e-03  -9.4664324106552983e-03  -9.5004581446337492e-03  -9.6130348762985419e-03  -9.8032784997382303e-03  -1.0063474191702275e-02  -1.0376707584007090e-02  -1.0718088628212344e-02  -1.1065772316038733e-02  -1.1425209311684682e-02  -1.1854106314039227e-02  -1.2452971410621357e-02  -1.3297056906090692e-02  -1.4371736446558975e-02  -1.5662785335281756e-02  -1.7405728323653263e-02  -2.0185307025166545e-02  -2.4253467386202883e-02  -2.8557572954444384e-02  -3.1516883674006388e-02  -3.2635689217103248e-02  -3.1870262727594321e-02  -2.9018598080413179e-02  -2.2823495711506808e-02  -1.5675770341527839e-02  -3.9786318146712929e-03  -3.2932741778884257e-05  -1.1166155022959618e-03  -1.4093580277142905e-02  -2.0921824731267125e-02  -1.8743911184392351e-02  -2.0035188386772620e-02  -2.3261338026384575e-02  -2.8133876614644535e-02  -3.4654511631794262e-02  -3.9628117157600222e-02  -3.8631141159219451e-02  -3.1955398130049710e-02  -2.4562283233085191e-02  -1.9302424995301572e-02  -1.6011134938856669e-02  -1.4013078042066376e-02  -1.2852438446518004e-02  -1.2163948383066139e-02  -1.1652606701919786e-02  -1.1163856814388246e-02  -1.0680594810743446e-02  -1.0248561912964520e-02  -9.8992453775804887e-03  -9.6327757147734450e-03  -9.4397909456250748e-03  -9.3172468514697605e-03  -9.2695334911387095e-03  -9.3039332481715184e-03  -9.4272048312185799e-03  -9.6427805098470241e-03  -9.9461249623663678e-03  -1.0319732919065705e-02  -1.0733634530925937e-02  -1.1158503341551372e-02  -1.1600481496613193e-02  -1.2156134006918055e-02  -1.3038532951391681e-02  -1.4507917406757182e-02  -1.6770100812955664e-02  -2.0015069809034423e-02  -2.4411003864882874e-02  -2.9680474780830263e-02  -3.4255252164140722e-02  -3.5417219996344521e-02  -3.2488980768103116e-02  -2.8335348165834398e-02  -2.5134663897425420e-02  -2.2738384801474568e-02  -2.0575108879458938e-02  -1.5901832536610559e-02  -1.2720176236695155e-02  -2.3549060922472162e-04  -6.8753795146632582e-03  -3.1007384228319439e-02  -2.7579790163989794e-02  -1.8296008700759800e-02  -1.5824531708451016e-02  -1.6592301164149340e-02  -1.8682468144925284e-02  -2.2905681727325353e-02  -3.0721061988451068e-02  -4.0260040521389560e-02  -4.4636675473922388e-02  -3.8648377182972232e-02  -2.8504353470072415e-02  -2.0809058630896826e-02  -1.6356427147646131e-02  -1.4007071004257748e-02  -1.2801243530189117e-02  -1.2033339431788546e-02  -1.1359581755038177e-02  -1.0733087929061729e-02  -1.0192486498803584e-02  -9.7744431691590555e-03  -9.4699419490800775e-03  -9.2543583855278430e-03  -9.1166178100721071e-03  -9.0600471710555984e-03  -9.0937898464154079e-03  -9.2290475098998157e-03  -9.4767826275035712e-03  -9.8398390100329809e-03  -1.0302845237397305e-02  -1.0833365683756317e-02  -1.1401031050384739e-02  -1.2028231719709809e-02  -1.2896204305570789e-02  -1.4453453496607116e-02  -1.7395155159488345e-02  -2.2394093418169288e-02  -2.9247542163559417e-02  -3.5424199337228027e-02  -3.7914171747827567e-02  -3.5854899359141282e-02  -3.0254567465114814e-02  -2.3527377907207308e-02  -1.9477691784613848e-02  -1.8957916420257681e-02  -2.0030250618763644e-02  -2.2169813646771369e-02  -2.7902972692709666e-02  -3.2652794231143832e-02  -4.3720899867192176e-03  -2.0385303305916889e-02  -5.2112434437566774e-02  -5.0809309322475300e-02  -3.6124028792164004e-02  -2.5549787235488279e-02  -2.0896718500365084e-02  -2.0332857953004619e-02  -2.1377177548213760e-02  -2.3764142118065996e-02  -3.0248710731559398e-02  -4.1420474352489522e-02  -4.9243785438147065e-02  -4.4463740237630445e-02  -3.2695364288141328e-02  -2.3072489520534881e-02  -1.7554923765551532e-02  -1.4663356294741142e-02  -1.3096865629970828e-02  -1.2003214359932433e-02  -1.1060697449803820e-02  -1.0313765001580145e-02  -9.7788219683466408e-03  -9.4125445060658508e-03  -9.1624632606161702e-03  -9.0028277788095842e-03  -8.9344625041094805e-03  -8.9685020576810853e-03  -9.1215557607894297e-03  -9.4173770548924302e-03  -9.8770321485126163e-03  -1.0500099034553850e-02  -1.1264458425822141e-02  -1.2167075298650951e-02  -1.3310059137643999e-02  -1.5086719934915602e-02  -1.8433648719905313e-02  -2.4659078878436474e-02  -3.3924582572881883e-02  -4.2304988666936182e-02  -4.3276379298951492e-02  -3.6413152219934956e-02  -2.9333288357419086e-02  -2.4432320612466266e-02  -2.1783804111761160e-02  -2.1931138014283747e-02  -2.5123777689271747e-02  -3.0700683771859819e-02  -3.8250928118567624e-02  -4.4582894047404224e-02  -4.5789733860015565e-02  -1.9821350666252780e-02  -2.9376930226674560e-02  -5.4744847276304645e-02  -6.0052170013110182e-02  -6.1798040560105218e-02  -5.1987321751872546e-02  -3.7251368141635578e-02  -2.8912188030866332e-02  -2.5582568681396283e-02  -2.4118693085402331e-02  -2.5081778454068348e-02  -3.1074923549322266e-02  -4.1628045413950161e-02  -4.9746125959236734e-02  -4.7645203380532263e-02  -3.7289830801107218e-02  -2.7363635368843214e-02  -2.0658967545257430e-02  -1.6618472702019202e-02  -1.4175441672514010e-02  -1.2441965432388943e-02  -1.1173393986636030e-02  -1.0358115266505402e-02  -9.8501217377277885e-03  -9.5202263392941463e-03  -9.3145224626286684e-03  -9.2281357078384200e-03  -9.2725076775685821e-03  -9.4701560531027240e-03  -9.8676080632128394e-03  -1.0529128928340941e-02  -1.1512940990505295e-02  -1.2874563400782711e-02  -1.4733096814293460e-02  -1.7368354427965943e-02  -2.1420716414667963e-02  -2.8034934036455579e-02  -3.7718955580741405e-02  -4.6706291033455069e-02  -4.7646812414008345e-02  -3.9101707133541046e-02  -2.9366030043537401e-02  -2.4798134734526509e-02  -2.3466449059705335e-02  -2.4713325482748103e-02  -3.0261307918495958e-02  -3.9883521405504170e-02  -4.7496795458100649e-02  -4.8531594014789306e-02  -5.1747476274804173e-02  -5.4066560940907643e-02  -3.2366951269199501e-02  -3.3347295209286990e-02  -5.6504782190486678e-02  -5.1735438847801435e-02  -6.4377526740705057e-02  -7.0073038574284277e-02  -5.9653117412984062e-02  -4.3543451765113102e-02  -3.3140503746161995e-02  -2.7508149712318363e-02  -2.4108618767946014e-02  -2.4011118266148004e-02  -2.9643556726370437e-02  -3.8235713274035764e-02  -4.4879768013248861e-02  -4.6455661301607332e-02  -4.2411017724986191e-02  -3.5295402843605529e-02  -2.7459942387426869e-02  -2.1496903385903425e-02  -1.7514747931830082e-02  -1.4812513051859461e-02  -1.3143444284305613e-02  -1.2188703964051055e-02  -1.1615226617542253e-02  -1.1280032177902868e-02  -1.1158131958234846e-02  -1.1256054322004749e-02  -1.1603741069427220e-02  -1.2294480322656669e-02  -1.3496359783484759e-02  -1.5420708463236545e-02  -1.8306976560827352e-02  -2.2426944761982436e-02  -2.7828538322065340e-02  -3.4034074515475202e-02  -4.0495454443116724e-02  -4.5533218811314106e-02  -4.5684004989367651e-02  -3.8248398834930447e-02  -2.8843412944370605e-02  -2.4597223733599859e-02  -2.4291548620391956e-02  -2.6004182371225922e-02  -3.1714024540353360e-02  -4.2074270851635856e-02  -5.3530811575094185e-02  -5.8272065854099130e-02  -5.7301008344416260e-02  -5.0546278546651710e-02  -5.7633400210196827e-02  -3.3254911401887938e-02  -3.8133737823221124e-02  -6.4465821822228347e-02  -5.0847297690101080e-02  -4.9953794064473873e-02  -6.5455574723867815e-02  -6.9645914000314779e-02  -5.8807078288419731e-02  -4.3817818738512135e-02  -3.3200256117019475e-02  -2.6550425312875572e-02  -2.2248150394628265e-02  -2.1440365977723471e-02  -2.5326135653284499e-02  -3.1765575659229224e-02  -3.6576061529424005e-02  -4.2110957670483340e-02  -4.6443959531147369e-02  -4.4053023057655120e-02  -3.7254455432078136e-02  -3.0653327715768459e-02  -2.5893283335713089e-02  -2.2621046809564092e-02  -2.0550716145917095e-02  -1.9304273950183772e-02  -1.8617954774342790e-02  -1.8404601792928243e-02  -1.8632983887883686e-02  -1.9323189729943794e-02  -2.0629553930087179e-02  -2.2853135075063129e-02  -2.6303885520446487e-02  -3.1051573795465581e-02  -3.6556704587617131e-02  -4.1243131677584748e-02  -4.2913943627763046e-02  -4.0907574067209455e-02  -3.6908132648484554e-02  -3.1091307850968117e-02  -2.6077205000756984e-02  -2.4208128772067621e-02  -2.4056615451014656e-02  -2.6084578357701817e-02  -3.1765226698043707e-02  -4.1370608361258422e-02  -5.3493400398601051e-02  -6.1337422003619815e-02  -6.0134384783128658e-02  -5.0209350951297901e-02  -5.3182319137991860e-02  -6.5177788669903286e-02  -3.7184589314601300e-02  -3.7218599618026309e-02  -6.5621423191436018e-02  -5.1648158939783195e-02  -4.4831137095928085e-02  -5.1984811314875611e-02  -6.6707371743591995e-02  -6.6665883708981105e-02  -5.5626686719922928e-02  -4.2508783926469985e-02  -3.2492642032600362e-02  -2.5517949969812777e-02  -2.0719016487543249e-02  -1.8857811693031159e-02  -2.0427012482381813e-02  -2.4678402640684785e-02  -2.8694331970263168e-02  -3.4636809609899281e-02  -4.0723840756680570e-02  -4.1417683490395124e-02  -3.8277663255964607e-02  -3.5692229820998005e-02  -3.4419909326024033e-02  -3.3222661398679618e-02  -3.1925466331731191e-02  -3.0940047046142973e-02  -3.0539015027229863e-02  -3.0649350518795287e-02  -3.1136913950519086e-02  -3.2128002445362180e-02  -3.3889862332916847e-02  -3.6372628419759287e-02  -3.8944372953226836e-02  -4.0491959026566791e-02  -3.9517026660523320e-02  -3.5185124731506694e-02  -2.9262961522981374e-02  -2.3918711180979050e-02  -2.1216734622833373e-02  -2.1532830133473194e-02  -2.2840525563354960e-02  -2.5843012399490169e-02  -3.1543386445433357e-02  -4.0183443451372640e-02  -5.1220244911987789e-02  -6.0942326006675714e-02  -6.2734843843587199e-02  -5.2081989622394936e-02  -4.6470417200638311e-02  -5.1859954962626277e-02  -6.5259075550224518e-02  -3.8181925834615389e-02  -3.2183936185352591e-02  -5.6930144609910985e-02  -4.7659736398742159e-02  -4.2768905138102720e-02  -4.5944672719865132e-02  -5.8401679474177751e-02  -6.6658394199787113e-02  -6.2593081734554384e-02  -5.2546461042031097e-02  -4.1506709566851624e-02  -3.2289784844503247e-02  -2.5259020633452218e-02  -2.0169604171810841e-02  -1.7478131405125025e-02  -1.7330807084250850e-02  -1.9035415275099533e-02  -2.1458824296914442e-02  -2.4423772878257203e-02  -2.6461702539228280e-02  -2.6020767271859650e-02  -2.5128968727707431e-02  -2.5952600854517997e-02  -2.7371115492301926e-02  -2.7865843616207812e-02  -2.7490016295129295e-02  -2.7063448865815187e-02  -2.6865339979266965e-02  -2.6638196511927673e-02  -2.6366106766039232e-02  -2.6378791293740864e-02  -2.6735166542475663e-02  -2.6986574170966462e-02  -2.6668486264371780e-02  -2.5497712817196264e-02  -2.3158197490176512e-02  -2.0468096171479516e-02  -1.9240704732589292e-02  -1.9519596036654943e-02  -2.1244669703845694e-02  -2.5172877905823329e-02  -3.1234983656595723e-02  -3.9277517797368086e-02  -4.8834082075916947e-02  -5.8114479520535382e-02  -6.3291376982300682e-02  -5.8367979712152178e-02  -4.7792811263596385e-02  -4.3519389526853074e-02  -4.6933229166752626e-02  -5.6553758436721870e-02  -3.3334011549996975e-02  -3.0766854145304570e-02  -4.9301892954505308e-02  -4.5473276568282137e-02  -4.4579393665363419e-02  -4.6617430598162930e-02  -5.3697012602299782e-02  -6.1929049283521130e-02  -6.3296425951900687e-02  -5.7975120487664442e-02  -4.9672088180661170e-02  -4.0480592230499712e-02  -3.2139484451569771e-02  -2.5506946936615125e-02  -2.0770283340811130e-02  -1.8063822829878423e-02  -1.7265774263210725e-02  -1.7648418266677283e-02  -1.8301719141352923e-02  -1.8464039852970376e-02  -1.7652952397385787e-02  -1.6433491015221884e-02  -1.5755146089370627e-02  -1.5917282499142163e-02  -1.6403174292180113e-02  -1.6605070099454035e-02  -1.6547707738653761e-02  -1.6484941154518342e-02  -1.6405265685393126e-02  -1.6248731205726168e-02  -1.6181597105197537e-02  -1.6464299347685014e-02  -