<?xml version="1.0"?>
<VTKFile type="UnstructuredGrid"  version="0.1"  >
<UnstructuredGrid>
<Piece  NumberOfPoints="2601" NumberOfCells="5000">
<Points>
<DataArray  type="Float64"  NumberOfComponents="3"  format="ascii">0 0 0  0.03 0 0  0.06 0 0  0.09 0 0  0.12 0 0  0.15 0 0  0.18 0 0  0.21 0 0  0.24 0 0  0.27 0 0  0.3 0 0  0.33 0 0  0.36 0 0  0.39 0 0  0.42 0 0  0.45 0 0  0.48 0 0  0.51 0 0  0.54 0 0  0.57 0 0  0.6 0 0  0.63 0 0  0.66 0 0  0.6899999999999999 0 0  0.72 0 0  0.75 0 0  0.78 0 0  0.8100000000000001 0 0  0.84 0 0  0.87 0 0  0.9 0 0  0.93 0 0  0.96 0 0  0.99 0 0  1.02 0 0  1.05 0 0  1.08 0 0  1.11 0 0  1.14 0 0  1.17 0 0  1.2 0 0  1.23 0 0  1.26 0 0  1.29 0 0  1.32 0 0  1.35 0 0  1.38 0 0  1.41 0 0  1.44 0 0  1.47 0 0  1.5 0 0  0 0.02 0  0.03 0.02 0  0.06 0.02 0  0.09 0.02 0  0.12 0.02 0  0.15 0.02 0  0.18 0.02 0  0.21 0.02 0  0.24 0.02 0  0.27 0.02 0  0.3 0.02 0  0.33 0.02 0  0.36 0.02 0  0.39 0.02 0  0.42 0.02 0  0.45 0.02 0  0.48 0.02 0  0.51 0.02 0  0.54 0.02 0  0.57 0.02 0  0.6 0.02 0  0.63 0.02 0  0.66 0.02 0  0.6899999999999999 0.02 0  0.72 0.02 0  0.75 0.02 0  0.78 0.02 0  0.8100000000000001 0.02 0  0.84 0.02 0  0.87 0.02 0  0.9 0.02 0  0.93 0.02 0  0.96 0.02 0  0.99 0.02 0  1.02 0.02 0  1.05 0.02 0  1.08 0.02 0  1.11 0.02 0  1.14 0.02 0  1.17 0.02 0  1.2 0.02 0  1.23 0.02 0  1.26 0.02 0  1.29 0.02 0  1.32 0.02 0  1.35 0.02 0  1.38 0.02 0  1.41 0.02 0  1.44 0.02 0  1.47 0.02 0  1.5 0.02 0  0 0.04 0  0.03 0.04 0  0.06 0.04 0  0.09 0.04 0  0.12 0.04 0  0.15 0.04 0  0.18 0.04 0  0.21 0.04 0  0.24 0.04 0  0.27 0.04 0  0.3 0.04 0  0.33 0.04 0  0.36 0.04 0  0.39 0.04 0  0.42 0.04 0  0.45 0.04 0  0.48 0.04 0  0.51 0.04 0  0.54 0.04 0  0.57 0.04 0  0.6 0.04 0  0.63 0.04 0  0.66 0.04 0  0.6899999999999999 0.04 0  0.72 0.04 0  0.75 0.04 0  0.78 0.04 0  0.8100000000000001 0.04 0  0.84 0.04 0  0.87 0.04 0  0.9 0.04 0  0.93 0.04 0  0.96 0.04 0  0.99 0.04 0  1.02 0.04 0  1.05 0.04 0  1.08 0.04 0  1.11 0.04 0  1.14 0.04 0  1.17 0.04 0  1.2 0.04 0  1.23 0.04 0  1.26 0.04 0  1.29 0.04 0  1.32 0.04 0  1.35 0.04 0  1.38 0.04 0  1.41 0.04 0  1.44 0.04 0  1.47 0.04 0  1.5 0.04 0  0 0.06 0  0.03 0.06 0  0.06 0.06 0  0.09 0.06 0  0.12 0.06 0  0.15 0.06 0  0.18 0.06 0  0.21 0.06 0  0.24 0.06 0  0.27 0.06 0  0.3 0.06 0  0.33 0.06 0  0.36 0.06 0  0.39 0.06 0  0.42 0.06 0  0.45 0.06 0  0.48 0.06 0  0.51 0.06 0  0.54 0.06 0  0.57 0.06 0  0.6 0.06 0  0.63 0.06 0  0.66 0.06 0  0.6899999999999999 0.06 0  0.72 0.06 0  0.75 0.06 0  0.78 0.06 0  0.8100000000000001 0.06 0  0.84 0.06 0  0.87 0.06 0  0.9 0.06 0  0.93 0.06 0  0.96 0.06 0  0.99 0.06 0  1.02 0.06 0  1.05 0.06 0  1.08 0.06 0  1.11 0.06 0  1.14 0.06 0  1.17 0.06 0  1.2 0.06 0  1.23 0.06 0  1.26 0.06 0  1.29 0.06 0  1.32 0.06 0  1.35 0.06 0  1.38 0.06 0  1.41 0.06 0  1.44 0.06 0  1.47 0.06 0  1.5 0.06 0  0 0.08 0  0.03 0.08 0  0.06 0.08 0  0.09 0.08 0  0.12 0.08 0  0.15 0.08 0  0.18 0.08 0  0.21 0.08 0  0.24 0.08 0  0.27 0.08 0  0.3 0.08 0  0.33 0.08 0  0.36 0.08 0  0.39 0.08 0  0.42 0.08 0  0.45 0.08 0  0.48 0.08 0  0.51 0.08 0  0.54 0.08 0  0.57 0.08 0  0.6 0.08 0  0.63 0.08 0  0.66 0.08 0  0.6899999999999999 0.08 0  0.72 0.08 0  0.75 0.08 0  0.78 0.08 0  0.8100000000000001 0.08 0  0.84 0.08 0  0.87 0.08 0  0.9 0.08 0  0.93 0.08 0  0.96 0.08 0  0.99 0.08 0  1.02 0.08 0  1.05 0.08 0  1.08 0.08 0  1.11 0.08 0  1.14 0.08 0  1.17 0.08 0  1.2 0.08 0  1.23 0.08 0  1.26 0.08 0  1.29 0.08 0  1.32 0.08 0  1.35 0.08 0  1.38 0.08 0  1.41 0.08 0  1.44 0.08 0  1.47 0.08 0  1.5 0.08 0  0 0.1 0  0.03 0.1 0  0.06 0.1 0  0.09 0.1 0  0.12 0.1 0  0.15 0.1 0  0.18 0.1 0  0.21 0.1 0  0.24 0.1 0  0.27 0.1 0  0.3 0.1 0  0.33 0.1 0  0.36 0.1 0  0.39 0.1 0  0.42 0.1 0  0.45 0.1 0  0.48 0.1 0  0.51 0.1 0  0.54 0.1 0  0.57 0.1 0  0.6 0.1 0  0.63 0.1 0  0.66 0.1 0  0.6899999999999999 0.1 0  0.72 0.1 0  0.75 0.1 0  0.78 0.1 0  0.8100000000000001 0.1 0  0.84 0.1 0  0.87 0.1 0  0.9 0.1 0  0.93 0.1 0  0.96 0.1 0  0.99 0.1 0  1.02 0.1 0  1.05 0.1 0  1.08 0.1 0  1.11 0.1 0  1.14 0.1 0  1.17 0.1 0  1.2 0.1 0  1.23 0.1 0  1.26 0.1 0  1.29 0.1 0  1.32 0.1 0  1.35 0.1 0  1.38 0.1 0  1.41 0.1 0  1.44 0.1 0  1.47 0.1 0  1.5 0.1 0  0 0.12 0  0.03 0.12 0  0.06 0.12 0  0.09 0.12 0  0.12 0.12 0  0.15 0.12 0  0.18 0.12 0  0.21 0.12 0  0.24 0.12 0  0.27 0.12 0  0.3 0.12 0  0.33 0.12 0  0.36 0.12 0  0.39 0.12 0  0.42 0.12 0  0.45 0.12 0  0.48 0.12 0  0.51 0.12 0  0.54 0.12 0  0.57 0.12 0  0.6 0.12 0  0.63 0.12 0  0.66 0.12 0  0.6899999999999999 0.12 0  0.72 0.12 0  0.75 0.12 0  0.78 0.12 0  0.8100000000000001 0.12 0  0.84 0.12 0  0.87 0.12 0  0.9 0.12 0  0.93 0.12 0  0.96 0.12 0  0.99 0.12 0  1.02 0.12 0  1.05 0.12 0  1.08 0.12 0  1.11 0.12 0  1.14 0.12 0  1.17 0.12 0  1.2 0.12 0  1.23 0.12 0  1.26 0.12 0  1.29 0.12 0  1.32 0.12 0  1.35 0.12 0  1.38 0.12 0  1.41 0.12 0  1.44 0.12 0  1.47 0.12 0  1.5 0.12 0  0 0.14 0  0.03 0.14 0  0.06 0.14 0  0.09 0.14 0  0.12 0.14 0  0.15 0.14 0  0.18 0.14 0  0.21 0.14 0  0.24 0.14 0  0.27 0.14 0  0.3 0.14 0  0.33 0.14 0  0.36 0.14 0  0.39 0.14 0  0.42 0.14 0  0.45 0.14 0  0.48 0.14 0  0.51 0.14 0  0.54 0.14 0  0.57 0.14 0  0.6 0.14 0  0.63 0.14 0  0.66 0.14 0  0.6899999999999999 0.14 0  0.72 0.14 0  0.75 0.14 0  0.78 0.14 0  0.8100000000000001 0.14 0  0.84 0.14 0  0.87 0.14 0  0.9 0.14 0  0.93 0.14 0  0.96 0.14 0  0.99 0.14 0  1.02 0.14 0  1.05 0.14 0  1.08 0.14 0  1.11 0.14 0  1.14 0.14 0  1.17 0.14 0  1.2 0.14 0  1.23 0.14 0  1.26 0.14 0  1.29 0.14 0  1.32 0.14 0  1.35 0.14 0  1.38 0.14 0  1.41 0.14 0  1.44 0.14 0  1.47 0.14 0  1.5 0.14 0  0 0.16 0  0.03 0.16 0  0.06 0.16 0  0.09 0.16 0  0.12 0.16 0  0.15 0.16 0  0.18 0.16 0  0.21 0.16 0  0.24 0.16 0  0.27 0.16 0  0.3 0.16 0  0.33 0.16 0  0.36 0.16 0  0.39 0.16 0  0.42 0.16 0  0.45 0.16 0  0.48 0.16 0  0.51 0.16 0  0.54 0.16 0  0.57 0.16 0  0.6 0.16 0  0.63 0.16 0  0.66 0.16 0  0.6899999999999999 0.16 0  0.72 0.16 0  0.75 0.16 0  0.78 0.16 0  0.8100000000000001 0.16 0  0.84 0.16 0  0.87 0.16 0  0.9 0.16 0  0.93 0.16 0  0.96 0.16 0  0.99 0.16 0  1.02 0.16 0  1.05 0.16 0  1.08 0.16 0  1.11 0.16 0  1.14 0.16 0  1.17 0.16 0  1.2 0.16 0  1.23 0.16 0  1.26 0.16 0  1.29 0.16 0  1.32 0.16 0  1.35 0.16 0  1.38 0.16 0  1.41 0.16 0  1.44 0.16 0  1.47 0.16 0  1.5 0.16 0  0 0.18 0  0.03 0.18 0  0.06 0.18 0  0.09 0.18 0  0.12 0.18 0  0.15 0.18 0  0.18 0.18 0  0.21 0.18 0  0.24 0.18 0  0.27 0.18 0  0.3 0.18 0  0.33 0.18 0  0.36 0.18 0  0.39 0.18 0  0.42 0.18 0  0.45 0.18 0  0.48 0.18 0  0.51 0.18 0  0.54 0.18 0  0.57 0.18 0  0.6 0.18 0  0.63 0.18 0  0.66 0.18 0  0.6899999999999999 0.18 0  0.72 0.18 0  0.75 0.18 0  0.78 0.18 0  0.8100000000000001 0.18 0  0.84 0.18 0  0.87 0.18 0  0.9 0.18 0  0.93 0.18 0  0.96 0.18 0  0.99 0.18 0  1.02 0.18 0  1.05 0.18 0  1.08 0.18 0  1.11 0.18 0  1.14 0.18 0  1.17 0.18 0  1.2 0.18 0  1.23 0.18 0  1.26 0.18 0  1.29 0.18 0  1.32 0.18 0  1.35 0.18 0  1.38 0.18 0  1.41 0.18 0  1.44 0.18 0  1.47 0.18 0  1.5 0.18 0  0 0.2 0  0.03 0.2 0  0.06 0.2 0  0.09 0.2 0  0.12 0.2 0  0.15 0.2 0  0.18 0.2 0  0.21 0.2 0  0.24 0.2 0  0.27 0.2 0  0.3 0.2 0  0.33 0.2 0  0.36 0.2 0  0.39 0.2 0  0.42 0.2 0  0.45 0.2 0  0.48 0.2 0  0.51 0.2 0  0.54 0.2 0  0.57 0.2 0  0.6 0.2 0  0.63 0.2 0  0.66 0.2 0  0.6899999999999999 0.2 0  0.72 0.2 0  0.75 0.2 0  0.78 0.2 0  0.8100000000000001 0.2 0  0.84 0.2 0  0.87 0.2 0  0.9 0.2 0  0.93 0.2 0  0.96 0.2 0  0.99 0.2 0  1.02 0.2 0  1.05 0.2 0  1.08 0.2 0  1.11 0.2 0  1.14 0.2 0  1.17 0.2 0  1.2 0.2 0  1.23 0.2 0  1.26 0.2 0  1.29 0.2 0  1.32 0.2 0  1.35 0.2 0  1.38 0.2 0  1.41 0.2 0  1.44 0.2 0  1.47 0.2 0  1.5 0.2 0  0 0.22 0  0.03 0.22 0  0.06 0.22 0  0.09 0.22 0  0.12 0.22 0  0.15 0.22 0  0.18 0.22 0  0.21 0.22 0  0.24 0.22 0  0.27 0.22 0  0.3 0.22 0  0.33 0.22 0  0.36 0.22 0  0.39 0.22 0  0.42 0.22 0  0.45 0.22 0  0.48 0.22 0  0.51 0.22 0  0.54 0.22 0  0.57 0.22 0  0.6 0.22 0  0.63 0.22 0  0.66 0.22 0  0.6899999999999999 0.22 0  0.72 0.22 0  0.75 0.22 0  0.78 0.22 0  0.8100000000000001 0.22 0  0.84 0.22 0  0.87 0.22 0  0.9 0.22 0  0.93 0.22 0  0.96 0.22 0  0.99 0.22 0  1.02 0.22 0  1.05 0.22 0  1.08 0.22 0  1.11 0.22 0  1.14 0.22 0  1.17 0.22 0  1.2 0.22 0  1.23 0.22 0  1.26 0.22 0  1.29 0.22 0  1.32 0.22 0  1.35 0.22 0  1.38 0.22 0  1.41 0.22 0  1.44 0.22 0  1.47 0.22 0  1.5 0.22 0  0 0.24 0  0.03 0.24 0  0.06 0.24 0  0.09 0.24 0  0.12 0.24 0  0.15 0.24 0  0.18 0.24 0  0.21 0.24 0  0.24 0.24 0  0.27 0.24 0  0.3 0.24 0  0.33 0.24 0  0.36 0.24 0  0.39 0.24 0  0.42 0.24 0  0.45 0.24 0  0.48 0.24 0  0.51 0.24 0  0.54 0.24 0  0.57 0.24 0  0.6 0.24 0  0.63 0.24 0  0.66 0.24 0  0.6899999999999999 0.24 0  0.72 0.24 0  0.75 0.24 0  0.78 0.24 0  0.8100000000000001 0.24 0  0.84 0.24 0  0.87 0.24 0  0.9 0.24 0  0.93 0.24 0  0.96 0.24 0  0.99 0.24 0  1.02 0.24 0  1.05 0.24 0  1.08 0.24 0  1.11 0.24 0  1.14 0.24 0  1.17 0.24 0  1.2 0.24 0  1.23 0.24 0  1.26 0.24 0  1.29 0.24 0  1.32 0.24 0  1.35 0.24 0  1.38 0.24 0  1.41 0.24 0  1.44 0.24 0  1.47 0.24 0  1.5 0.24 0  0 0.26 0  0.03 0.26 0  0.06 0.26 0  0.09 0.26 0  0.12 0.26 0  0.15 0.26 0  0.18 0.26 0  0.21 0.26 0  0.24 0.26 0  0.27 0.26 0  0.3 0.26 0  0.33 0.26 0  0.36 0.26 0  0.39 0.26 0  0.42 0.26 0  0.45 0.26 0  0.48 0.26 0  0.51 0.26 0  0.54 0.26 0  0.57 0.26 0  0.6 0.26 0  0.63 0.26 0  0.66 0.26 0  0.6899999999999999 0.26 0  0.72 0.26 0  0.75 0.26 0  0.78 0.26 0  0.8100000000000001 0.26 0  0.84 0.26 0  0.87 0.26 0  0.9 0.26 0  0.93 0.26 0  0.96 0.26 0  0.99 0.26 0  1.02 0.26 0  1.05 0.26 0  1.08 0.26 0  1.11 0.26 0  1.14 0.26 0  1.17 0.26 0  1.2 0.26 0  1.23 0.26 0  1.26 0.26 0  1.29 0.26 0  1.32 0.26 0  1.35 0.26 0  1.38 0.26 0  1.41 0.26 0  1.44 0.26 0  1.47 0.26 0  1.5 0.26 0  0 0.28 0  0.03 0.28 0  0.06 0.28 0  0.09 0.28 0  0.12 0.28 0  0.15 0.28 0  0.18 0.28 0  0.21 0.28 0  0.24 0.28 0  0.27 0.28 0  0.3 0.28 0  0.33 0.28 0  0.36 0.28 0  0.39 0.28 0  0.42 0.28 0  0.45 0.28 0  0.48 0.28 0  0.51 0.28 0  0.54 0.28 0  0.57 0.28 0  0.6 0.28 0  0.63 0.28 0  0.66 0.28 0  0.6899999999999999 0.28 0  0.72 0.28 0  0.75 0.28 0  0.78 0.28 0  0.8100000000000001 0.28 0  0.84 0.28 0  0.87 0.28 0  0.9 0.28 0  0.93 0.28 0  0.96 0.28 0  0.99 0.28 0  1.02 0.28
[...]
<PointData  Scalars="sensitivity"> 
<DataArray  type="Float64"  Name="sensitivity"  format="ascii">-7.6149401304694312e-07  -1.3901258120957698e-05  -5.5704954758845742e-05  -1.3976108054105862e-04  -2.6639070941783050e-04  -4.1823118122384423e-04  -5.7216176044435642e-04  -7.1108304603117892e-04  -8.2696912720154139e-04  -9.1772950441217722e-04  -9.8326810201853861e-04  -1.0240824528813396e-03  -1.0422812380056583e-03  -1.0425127911291411e-03  -1.0309208587478301e-03  -1.0128945248096171e-03  -9.9173156433694245e-04  -9.6905340384977003e-04  -9.4596108975817934e-04  -9.2365958072028389e-04  -9.0334621981833342e-04  -8.8594607506366717e-04  -8.7209646118410018e-04  -8.6228907297954973e-04  -8.5693900385034921e-04  -8.5632104334940203e-04  -8.6046828248132390e-04  -8.6913308339104181e-04  -8.8182866068210774e-04  -8.9790828893091099e-04  -9.1666282885477556e-04  -9.3746347587909636e-04  -9.5989592208554377e-04  -9.8364782062797034e-04  -1.0078925402915080e-03  -1.0302558456687487e-03  -1.0460685370142127e-03  -1.0490121501114736e-03  -1.0334573671621136e-03  -9.9669969580873851e-04  -9.3862765093324495e-04  -8.5917060967241577e-04  -7.5681982392897902e-04  -6.3051571893787115e-04  -4.8389955615357522e-04  -3.2959082864029158e-04  -1.8940492006294974e-04  -8.5793958013731953e-05  -2.7725438960305377e-05  -3.7668549837592530e-06  -1.1086233988149489e-08  -7.2305937462728088e-06  -7.4076056420642708e-05  -2.8953276497339865e-04  -7.4862755610784323e-04  -1.4719417377355595e-03  -2.3696983470378190e-03  -3.3034157747652876e-03  -4.1610137255663733e-03  -4.8855400116084614e-03  -5.4608561279161048e-03  -5.8856410430845772e-03  -6.1608553121014036e-03  -6.2949975975411980e-03  -6.3126382038707031e-03  -6.2509408160589842e-03  -6.1454203163954493e-03  -6.0188985403701973e-03  -5.8821770348957726e-03  -5.7415988185752723e-03  -5.6042157928964491e-03  -5.4775912805696174e-03  -5.3677757180818691e-03  -5.2788350636818887e-03  -5.2137890098638397e-03  -5.1752814545769745e-03  -5.1652910942784304e-03  -5.1844166417840927e-03  -5.2314903034260864e-03  -5.3037650515051190e-03  -5.3974055028534916e-03  -5.5080494435463048e-03  -5.6316322349448927e-03  -5.7654274045649701e-03  -5.9080156342119312e-03  -6.0562497428420072e-03  -6.1989177321329593e-03  -6.3106118501174164e-03  -6.3530475367668182e-03  -6.2884158652229318e-03  -6.0961488203966551e-03  -5.7752249223556587e-03  -5.3284028983125280e-03  -4.7484551046722391e-03  -4.0251016182733992e-03  -3.1690411335791634e-03  -2.2405933933077730e-03  -1.3592150887280227e-03  -6.6681466008790789e-04  -2.4630133761802066e-04  -5.8122043127466716e-05  -2.5359517402685613e-06  -1.9962981196540676e-05  -1.3979508625987198e-04  -4.3009787200893419e-04  -1.0382139126256516e-03  -1.9720976533568416e-03  -3.0992194654740285e-03  -4.2447526329329960e-03  -5.2782818421966624e-03  -6.1409076930737010e-03  -6.8223769497806350e-03  -7.3250473489466601e-03  -7.6475523176513646e-03  -7.7956688325268595e-03  -7.7986291387221549e-03  -7.7057290188879395e-03  -7.5643137611520021e-03  -7.4023160674504722e-03  -7.2299887537526277e-03  -7.0526657817996394e-03  -6.8787665216001725e-03  -6.7184489708202117e-03  -6.5795893645301633e-03  -6.4669548293612954e-03  -6.3839571441248796e-03  -6.3338950605501326e-03  -6.3195326053800864e-03  -6.3419430799316508e-03  -6.3998384507318786e-03  -6.4897854385300444e-03  -6.6068617059217806e-03  -6.7452977480965733e-03  -6.8995049383285554e-03  -7.0658786070891301e-03  -7.2437464200568475e-03  -7.4321853475979322e-03  -7.6211746428533882e-03  -7.7810366786561815e-03  -7.8613106198208976e-03  -7.8092421659991312e-03  -7.5974398824621373e-03  -7.2300040464922917e-03  -6.7166395809545917e-03  -6.0480687226309683e-03  -5.2035367146548257e-03  -4.1834936003939021e-03  -3.0456231054491892e-03  -1.9219575189187862e-03  -9.9308341766043517e-04  -3.9867368133346523e-04  -1.2618022803807122e-04  -1.2438886609646204e-05  -3.1434673310096389e-05  -2.2774532020409713e-04  -6.3046421111084437e-04  -1.3917423567150564e-03  -2.4539239121247774e-03  -3.6383982842567849e-03  -4.7751161639807008e-03  -5.7619451538315665e-03  -6.5668439128342138e-03  -7.1966871080872867e-03  -7.6576949002773991e-03  -7.9414237727739815e-03  -8.0458858065818352e-03  -8.0015237113675256e-03  -7.8665433627798289e-03  -7.6950216148742824e-03  -7.5133379286510364e-03  -7.3254101459115867e-03  -7.1324160526434104e-03  -6.9431244796129346e-03  -6.7697214253736029e-03  -6.6208838540810309e-03  -6.5008141417850496e-03  -6.4122565811382242e-03  -6.3584560359599800e-03  -6.3425862668144142e-03  -6.3661640864199516e-03  -6.4281009911950618e-03  -6.5248818671896584e-03  -6.6512575671348164e-03  -6.8007623676400878e-03  -6.9667067679698852e-03  -7.1447723193771321e-03  -7.3355765597987932e-03  -7.5424548104767982e-03  -7.7608448279772348e-03  -7.9624798537276890e-03  -8.0894458081009705e-03  -8.0770196493959480e-03  -7.8950618741451557e-03  -7.5593066405697266e-03  -7.0915039157930003e-03  -6.4806265286592949e-03  -5.6937066035476431e-03  -4.7206580994247497e-03  -3.5882173016878113e-03  -2.3985685957486100e-03  -1.3296248832022932e-03  -5.7070662396211118e-04  -1.9753104337493985e-04  -2.5253643529713090e-05  -2.9622915633903203e-05  -3.4580780208128453e-04  -1.0512142782195513e-03  -2.1744137217151447e-03  -3.4595570983692414e-03  -4.6562442663347497e-03  -5.6708650210680776e-03  -6.4960965718715560e-03  -7.1560315660021741e-03  -7.6764014288899819e-03  -8.0585386665926722e-03  -8.2757863092898284e-03  -8.3104595920557509e-03  -8.1936316281867039e-03  -7.9967822974951440e-03  -7.7833741251129773e-03  -7.5761064863787047e-03  -7.3683592465116831e-03  -7.1549107169887284e-03  -6.9454502153330350e-03  -6.7554450582277383e-03  -6.5946070337999157e-03  -6.4659824722020824e-03  -6.3710717900387010e-03  -6.3128567125604546e-03  -6.2949845422564342e-03  -6.3196006288190748e-03  -6.3860280516406485e-03  -6.4908356551015602e-03  -6.6285217258873312e-03  -6.7918447173944373e-03  -6.9726475016540831e-03  -7.1653474604091022e-03  -7.3719073947470593e-03  -7.6017064774714423e-03  -7.8592619536526995e-03  -8.1204975469004476e-03  -8.3172250658481058e-03  -8.3658442749516559e-03  -8.2327350137755273e-03  -7.9563523004314608e-03  -7.5833764852814445e-03  -7.1022579141097452e-03  -6.4701932715765034e-03  -5.6681749218696655e-03  -4.6356307296013168e-03  -3.4148186793814717e-03  -2.1013007168568473e-03  -9.5416661213007861e-04  -2.6467407122224214e-04  -2.9819777584621089e-05  -3.0745655178780604e-05  -6.5736835555648006e-04  -2.7382460036546276e-03  -5.4705449160621800e-03  -7.2041235259686903e-03  -7.8434755622871864e-03  -7.9394088644755539e-03  -7.9828873509696346e-03  -8.1288536821553584e-03  -8.3575397481558452e-03  -8.5821071559992086e-03  -8.6944218965161885e-03  -8.6299031783440960e-03  -8.4139137320905066e-03  -8.1350225441771014e-03  -7.8683817211073065e-03  -7.6299100438415365e-03  -7.3975399223842053e-03  -7.1574714627544766e-03  -6.9215265382619835e-03  -6.7103365055909891e-03  -6.5349802080300768e-03  -6.3964906729023947e-03  -6.2943241879005723e-03  -6.2309180052966678e-03  -6.2104517012577633e-03  -6.2359131280226758e-03  -6.3073484836381729e-03  -6.4217179586223885e-03  -6.5734354904533436e-03  -6.7544358044100399e-03  -6.9546725238010349e-03  -7.1663893018889977e-03  -7.3921757361259414e-03  -7.6487967818472287e-03  -7.9546533948530555e-03  -8.2944800996586944e-03  -8.5863128450124025e-03  -8.7188259442470932e-03  -8.6565690456749302e-03  -8.4902082021064782e-03  -8.3328347961081836e-03  -8.2197464260770521e-03  -8.2087059989357052e-03  -8.3606649073031739e-03  -8.3152214061712245e-03  -7.5035028087055205e-03  -5.0375871216026668e-03  -1.9887000316620097e-03  -3.7851401645269743e-04  -1.9955004926251123e-05  -2.6288990960546320e-04  -3.1778526323840363e-03  -1.1586605910116831e-02  -1.9150129283262061e-02  -2.1401453117127246e-02  -1.9568040976069356e-02  -1.6175240455898094e-02  -1.2864717175229020e-02  -1.0694285381108785e-02  -9.6944591629667103e-03  -9.3692802971424918e-03  -9.2394253231904439e-03  -9.0223540588927516e-03  -8.6744879583430280e-03  -8.2926936792047899e-03  -7.9627024884045793e-03  -7.6884282222718188e-03  -7.4262931619212200e-03  -7.1518305410834043e-03  -6.8815273886825117e-03  -6.6437692290872551e-03  -6.4512369717783105e-03  -6.3017181360203612e-03  -6.1915371926397232e-03  -6.1222212565050461e-03  -6.0985138965748246e-03  -6.1244194412496886e-03  -6.2010838267251558e-03  -6.3263890545541155e-03  -6.4950458000105158e-03  -6.6982368043735979e-03  -6.9237220549451016e-03  -7.1603733652971513e-03  -7.4095384432428376e-03  -7.6958493639361133e-03  -8.0572295891745711e-03  -8.4944307040072369e-03  -8.9123988074082290e-03  -9.1661812503597596e-03  -9.2336004933766449e-03  -9.3578570380119588e-03  -9.8904571171390988e-03  -1.1159278458306287e-02  -1.3452383224957775e-02  -1.6573148586597544e-02  -1.9664453261694807e-02  -2.1736589887492993e-02  -1.9467625760763531e-02  -1.1868686866935508e-02  -2.1178448401548782e-03  -4.5971619974087019e-05  -1.2901126448652319e-03  -1.7001885098422029e-02  -2.9873842781033735e-02  -2.8150639861793742e-02  -2.7826507891164948e-02  -2.8096030188706406e-02  -2.6944814256498566e-02  -2.3248027887065186e-02  -1.7982590821632428e-02  -1.3653107809934227e-02  -1.1249971176417330e-02  -1.0164081305671400e-02  -9.5438142624159859e-03  -8.9849003752834403e-03  -8.4719829692573752e-03  -8.0684976518320822e-03  -7.7530764091306627e-03  -7.4565612337916965e-03  -7.1413263832970225e-03  -6.8279363995166712e-03  -6.5571668611063378e-03  -6.3448305478062380e-03  -6.1835005115646871e-03  -6.0648177738513902e-03  -5.9890327479245062e-03  -5.9614872260098147e-03  -5.9872274479103550e-03  -6.0688066467504808e-03  -6.2057880984116246e-03  -6.3939090872554092e-03  -6.6238125640953587e-03  -6.8810338558178289e-03  -7.1501784867079735e-03  -7.4280813122049429e-03  -7.7452729447440912e-03  -8.1664858736734906e-03  -8.7268469983007111e-03  -9.3291021253714048e-03  -9.7965147631379479e-03  -1.0241003646961162e-02  -1.1366299914583039e-02  -1.3960791493463536e-02  -1.8144023249919240e-02  -2.2848706518976240e-02  -2.5866779469990282e-02  -2.6065552599657579e-02  -2.6091107382060282e-02  -2.8889744408442813e-02  -2.9892285993820444e-02  -1.7079273445343487e-02  -5.1259065622585864e-04  -7.5955257203334098e-03  -2.9887869068351346e-02  -3.0642327434485375e-02  -2.8965838950201453e-02  -2.7863077251932534e-02  -2.8050081848877494e-02  -2.8749428997313423e-02  -2.8853437356233788e-02  -2.6739690495144471e-02  -2.1891555083925048e-02  -1.6676990365539126e-02  -1.2828687138127421e-02  -1.0681264427981306e-02  -9.4815299226362389e-03  -8.7083473726351883e-03  -8.1878933892037178e-03  -7.8271989867344967e-03  -7.4894092050684404e-03  -7.1201068160868129e-03  -6.7583924499768763e-03  -6.4499309178154716e-03  -6.2158015489646020e-03  -6.0428498046039367e-03  -5.9157377216672849e-03  -5.8330792474091909e-03  -5.8011468821304538e-03  -5.8258522346076634e-03  -5.9111805271883176e-03  -6.0594474139781156e-03  -6.2687959489949700e-03  -6.5295043592649531e-03  -6.8246273609571285e-03  -7.1345494713903942e-03  -7.4499486081819610e-03  -7.8062903956023838e-03  -8.3072583014855185e-03  -9.0613390354854911e-03  -1.0016002747160701e-02  -1.1121720841799406e-02  -1.2922922639295847e-02  -1.6441189710498415e-02  -2.1565488980231303e-02  -2.6243586885157742e-02  -2.8107913901910631e-02  -2.7969726353685522e-02  -2.7586009875822652e-02  -2.8210765594091268e-02  -3.0183657549362114e-02  -3.4046680994076768e-02  -4.0266519468299081e-02  -7.0208610469537471e-03  -1.5308957728338492e-02  -3.2195607283959364e-02  -3.1757771099982818e-02  -3.0442878846124934e-02  -2.8825553444361721e-02  -2.8441115676907415e-02  -2.9179451723914337e-02  -3.0246736156942278e-02  -3.0792359881507112e-02  -2.9169770334694350e-02  -2.4991799223788358e-02  -1.9686354992247027e-02  -1.4464897268708641e-02  -1.1108666067978935e-02  -9.3810899336057487e-03  -8.4876765897277575e-03  -7.9315341738506757e-03  -7.5070733365635222e-03  -7.0901725970688879e-03  -6.6647565157503461e-03  -6.3154051677804194e-03  -6.0613078808032872e-03  -5.8784194707654763e-03  -5.7439657188186428e-03  -5.6548761367508169e-03  -5.6187290228955841e-03  -5.6418784815078418e-03  -5.7289252445172608e-03  -5.8858193875894202e-03  -6.1160882689777051e-03  -6.4120240779905243e-03  -6.7532694142772021e-03  -7.1178073225339460e-03  -7.4965530558373595e-03  -7.9439198923646447e-03  -8.6560526906053689e-03  -9.9088568751701731e-03  -1.1899112844337116e-02  -1.4901175287539169e-02  -1.9202449140940259e-02  -2.4285587122608837e-02  -2.9100205810061296e-02  -3.0593831966289915e-02  -2.9859690057324851e-02  -2.8864645236458292e-02  -2.8519657771076481e-02  -2.9535796104290250e-02  -3.1331117053191873e-02  -3.2949293761876164e-02  -3.3209868360129575e-02  -1.6404344416755194e-02  -1.9953897517793404e-02  -3.4393493017129385e-02  -3.2523665338677288e-02  -3.2727334015358212e-02  -3.1865919681561501e-02  -3.0374121882237315e-02  -2.9905216542158528e-02  -3.0136114368484533e-02  -3.0548671199482083e-02  -3.0718343959120698e-02  -2.9443963409403195e-02  -2.6392863665617970e-02  -2.1900436690954258e-02  -1.6191327036003043e-02  -1.1793236700360369e-02  -9.5522557125958946e-03  -8.4019004809739641e-03  -7.6507286471866219e-03  -7.0813316322850262e-03  -6.5793849010524911e-03  -6.1691007279295147e-03  -5.8931932563062971e-03  -5.7027132877616633e-03  -5.5605527319443236e-03  -5.4648977419808221e-03  -5.4258052694629430e-03  -5.4485523384845630e-03  -5.5360595210020951e-03  -5.6979842985697294e-03  -5.9472654852135440e-03  -6.2862309137046114e-03  -6.7020678554334454e-03  -7.1851531651331542e-03  -7.7465836442180604e-03  -8.5171171884958919e-03  -9.9272335341382412e-03  -1.2639920186243670e-02  -1.6812433424256364e-02  -2.1642008561884397e-02  -2.5541167898854120e-02  -2.8919325692820394e-02  -3.1174782723149618e-02  -3.1051227393046971e-02  -3.0053160835079310e-02  -3.0027837542904480e-02  -3.1039643683864606e-02  -3.1814556419156911e-02  -3.1901005488900382e-02  -3.2348110140712226e-02  -3.4900548326899657e-02  -1.9031813433564082e-02  -2.9094986688914401e-02  -4.7507442560180677e-02  -3.7514598226746382e-02  -3.3859553741839854e-02  -3.3421539952343232e-02  -3.2695813692850316e-02  -3.1561999160209124e-02  -3.0866063256655550e-02  -3.0537026983091065e-02  -2.9879996079826460e-02  -2.8831053369298008e-02  -2.8060705082550527e-02  -2.6981016062854149e-02  -2.3812915248844407e-02  -1.8263178975362691e-02  -1.3519437944422471e-02  -1.0666626101864335e-02  -8.7921820727516423e-03  -7.5586119139928231e-03  -6.7588268831801730e-03  -6.1989973231724206e-03  -5.8464238262423167e-03  -5.6257122232363562e-03  -5.4644252221950551e-03  -5.3572609594431464e-03  -5.3179173555758822e-03  -5.3478928628340281e-03  -5.4453053748828029e-03  -5.6245095401423213e-03  -5.9161209939261527e-03  -6.3503211602218557e-03  -6.9582148839847768e-03  -7.8132470003252370e-03  -9.0312093707698559e-03  -1.0865673161783065e-02  -1.3974285421810053e-02  -1.8670557484445450e-02  -2.3512505793896441e-02  -2.5450060074624959e-02  -2.6634381847906695e-02  -2.9135791175548355e-02  -3.0809660767224831e-02  -3.0795613261891400e-02  -3.1015479006157760e-02  -3.1841192497912882e-02  -3.2544565429807118e-02  -3.2898320074817411e-02  -3.4006647707087154e-02  -3.8968061921203764e-02  -4.8865262073481547e-02  -2.6296751748965130e-02  -3.5277258911743978e-02  -6.0653058681276843e-02  -4.6402499143863914e-02  -3.7209794373849581e-02  -3.4136095630883358e-02  -3.3664622906068996e-02  -3.3101960984073121e-02  -3.2126074325863382e-02  -3.1303818051453478e-02  -3.0605767955993887e-02  -2.9199527525283639e-02  -2.7383869560613828e-02  -2.7209402586440404e-02  -2.8419121211243133e-02  -2.6470323968986804e-02  -2.1788753711243388e-02  -1.7798079247310947e-02  -1.4146651037054108e-02  -1.1102088360804717e-02  -9.0678986217028936e-03  -7.8861356934890950e-03  -7.1440917321238051e-03  -6.6686280397691344e-03  -6.3620408253380611e-03  -6.1905394543264967e-03  -6.1487865588154911e-03  -6.2207374183606001e-03  -6.3990990701205674e-03  -6.7162978982335184e-03  -7.2491350093279250e-03  -8.1062582267014110e-03  -9.4231269369136426e-03  -1.1351208879170013e-02  -1.4027793433778428e-02  -1.7478758824962831e-02  -2.1568047878034992e-02  -2.5475405383484896e-02  -2.6645064872303590e-02  -2.6555830960352488e-02  -2.8021720801108690e-02  -2.9686799911592829e-02  -3.0535653079350206e-02  -3.1396880245139931e-02  -3.2338874747507448e-02  -3.3058049494067009e-02  -3.3464393027581134e-02  -3.4251326968234942e-02  -3.7899144865177863e-02  -4.7069440729092145e-02  -6.0771254667240322e-02  -3.3938499030491537e-02  -3.4234684453018770e-02  -6.2815431127399346e-02  -5.0182803804413867e-02  -4.0502323795156815e-02  -3.5551875405048776e-02  -3.4148953348388994e-02  -3.3829789961548652e-02  -3.3272300369670126e-02  -3.2358534448132879e-02  -3.1505448578365902e-02  -3.0751061171529728e-02  -2.9291852911470784e-02  -2.7425667436949581e-02  -2.7448315357906004e-02  -2.9520069046294620e-02  -2.8927614910341140e-02  -2.5915009069965932e-02  -2.3622212225194159e-02  -2.1001549526643869e-02  -1.8017491237405675e-02  -1.5912779733216805e-02  -1.4709553601743645e-02  -1.3806605868423015e-02  -1.3083021181904339e-02  -1.2638267052112184e-02  -1.2509098397110249e-02  -1.2635315761612920e-02  -1.2979624731637961e-02  -1.3608151728614074e-02  -1.4644090171500949e-02  -1.6178625741739325e-02  -1.8227347021680312e-02  -2.0686307271070566e-02  -2.3254663332304477e-02  -2.5683076550550001e-02  -2.7774562897382643e-02  -2.8501558101983442e-02  -2.8484447737558569e-02  -2.8991040276075446e-02  -2.9473859325709791e-02  -3.0217178342468818e-02  -3.1370714240102661e-02  -3.2499105549554055e-02  -3.3305004968664245e-02  -3.3767376718670299e-02  -3.4209892969510387e-02  -3.5787777120312211e-02  -4.0522844936397469e-02  -4.9682685024614204e-02  -6.2124749258154706e-02  -3.5368764831016079e-02  -2.6657280040494051e-02  -5.2767941479152813e-02  -4.5851449548138530e-02  -3.9942909983402615e-02  -3.6290564147488269e-02  -3.4669381887265857e-02  -3.4175016491330493e-02  -3.3876734083651494e-02  -3.3301555779322402e-02  -3.2416862604609332e-02  -3.1593982868920067e-02  -3.0941638361190980e-02  -2.9852195235549540e-02  -2.8337166387926511e-02  -2.7855273058110683e-02  -2.8639774540615424e-02  -2.8462125492372956e-02  -2.7334236761934715e-02  -2.6906472387030290e-02  -2.6610093085857836e-02  -2.5795283188467532e-02  -2.5262331169171440e-02  -2.5070065336867332e-02  -2.4842402404732643e-02  -2.4543715896806890e-02  -2.4363014488781334e-02  -2.4368896794941072e-02  -2.4499886362020981e-02  -2.4756153342081904e-02  -2.5167293625582017e-02  -2.5640128580137221e-02  -2.6068349522304208e-02  -2.6583934025308741e-02  -2.7360983974949293e-02  -2.8205823986736135e-02  -2.8979274453822000e-02  -2.9788280744401947e-02  -3.0052427088025354e-02  -2.9900559979296432e-02  -3.0323568377079124e-02  -3.1330331121981539e-02  -3.2454625767881114e-02  -3.3345786017171815e-02  -3.3870409712434144e-02  -3.4201165553994051e-02  -3.4771752216841596e-02  -3.6249985025198751e-02  -3.9409398625652438e-02  -4.4721388405247461e-02  -5.1672124716087696e-02  -2.9523552260284178e-02  -1.8845379943841931e-02  -3.7667496380238266e-02  -3.6873465469199417e-02  -3.6094075095060678e-02  -3.5263380461336598e-02  -3.4667167324827254e-02  -3.4322331916652474e-02  -3.4117952557937453e-02  -3.3831718022190288e-02  -3.3240547980934239e-02  -3.2357852397214310e-02  -3.1513269130995156e-02  -3.0914461937387432e-02  -3.0209156682435664e-02  -2.9130021587689649e-02  -2.8261641848524796e-02  -2.7973886830894593e-02  -2.7817733848353253e-02  -2.7790235609992830e-02  -2.8193655127314581e-02  -2.8544461556430738e-02  -2.8181740753678512e-02  -2.7478928808133671e-02  -2.7144510802637089e-02  -2.7258843465594606e-02  -2.7497958255767972e-02  -2.7661612179343299e-02  -2.7790259870843548e-02  -2.7895950993607158e-02  -2.7839470246028727e-02  -2.7568276486959527e-02  -