<?xml version="1.0"?>
<VTKFile type="UnstructuredGrid"  version="0.1"  >
<UnstructuredGrid>
<Piece  NumberOfPoints="2601" NumberOfCells="5000">
<Points>
<DataArray  type="Float64"  NumberOfComponents="3"  format="ascii">0 0 0  0.03 0 0  0.06 0 0  0.09 0 0  0.12 0 0  0.15 0 0  0.18 0 0  0.21 0 0  0.24 0 0  0.27 0 0  0.3 0 0  0.33 0 0  0.36 0 0  0.39 0 0  0.42 0 0  0.45 0 0  0.48 0 0  0.51 0 0  0.54 0 0  0.57 0 0  0.6 0 0  0.63 0 0  0.66 0 0  0.6899999999999999 0 0  0.72 0 0  0.75 0 0  0.78 0 0  0.8100000000000001 0 0  0.84 0 0  0.87 0 0  0.9 0 0  0.93 0 0  0.96 0 0  0.99 0 0  1.02 0 0  1.05 0 0  1.08 0 0  1.11 0 0  1.14 0 0  1.17 0 0  1.2 0 0  1.23 0 0  1.26 0 0  1.29 0 0  1.32 0 0  1.35 0 0  1.38 0 0  1.41 0 0  1.44 0 0  1.47 0 0  1.5 0 0  0 0.02 0  0.03 0.02 0  0.06 0.02 0  0.09 0.02 0  0.12 0.02 0  0.15 0.02 0  0.18 0.02 0  0.21 0.02 0  0.24 0.02 0  0.27 0.02 0  0.3 0.02 0  0.33 0.02 0  0.36 0.02 0  0.39 0.02 0  0.42 0.02 0  0.45 0.02 0  0.48 0.02 0  0.51 0.02 0  0.54 0.02 0  0.57 0.02 0  0.6 0.02 0  0.63 0.02 0  0.66 0.02 0  0.6899999999999999 0.02 0  0.72 0.02 0  0.75 0.02 0  0.78 0.02 0  0.8100000000000001 0.02 0  0.84 0.02 0  0.87 0.02 0  0.9 0.02 0  0.93 0.02 0  0.96 0.02 0  0.99 0.02 0  1.02 0.02 0  1.05 0.02 0  1.08 0.02 0  1.11 0.02 0  1.14 0.02 0  1.17 0.02 0  1.2 0.02 0  1.23 0.02 0  1.26 0.02 0  1.29 0.02 0  1.32 0.02 0  1.35 0.02 0  1.38 0.02 0  1.41 0.02 0  1.44 0.02 0  1.47 0.02 0  1.5 0.02 0  0 0.04 0  0.03 0.04 0  0.06 0.04 0  0.09 0.04 0  0.12 0.04 0  0.15 0.04 0  0.18 0.04 0  0.21 0.04 0  0.24 0.04 0  0.27 0.04 0  0.3 0.04 0  0.33 0.04 0  0.36 0.04 0  0.39 0.04 0  0.42 0.04 0  0.45 0.04 0  0.48 0.04 0  0.51 0.04 0  0.54 0.04 0  0.57 0.04 0  0.6 0.04 0  0.63 0.04 0  0.66 0.04 0  0.6899999999999999 0.04 0  0.72 0.04 0  0.75 0.04 0  0.78 0.04 0  0.8100000000000001 0.04 0  0.84 0.04 0  0.87 0.04 0  0.9 0.04 0  0.93 0.04 0  0.96 0.04 0  0.99 0.04 0  1.02 0.04 0  1.05 0.04 0  1.08 0.04 0  1.11 0.04 0  1.14 0.04 0  1.17 0.04 0  1.2 0.04 0  1.23 0.04 0  1.26 0.04 0  1.29 0.04 0  1.32 0.04 0  1.35 0.04 0  1.38 0.04 0  1.41 0.04 0  1.44 0.04 0  1.47 0.04 0  1.5 0.04 0  0 0.06 0  0.03 0.06 0  0.06 0.06 0  0.09 0.06 0  0.12 0.06 0  0.15 0.06 0  0.18 0.06 0  0.21 0.06 0  0.24 0.06 0  0.27 0.06 0  0.3 0.06 0  0.33 0.06 0  0.36 0.06 0  0.39 0.06 0  0.42 0.06 0  0.45 0.06 0  0.48 0.06 0  0.51 0.06 0  0.54 0.06 0  0.57 0.06 0  0.6 0.06 0  0.63 0.06 0  0.66 0.06 0  0.6899999999999999 0.06 0  0.72 0.06 0  0.75 0.06 0  0.78 0.06 0  0.8100000000000001 0.06 0  0.84 0.06 0  0.87 0.06 0  0.9 0.06 0  0.93 0.06 0  0.96 0.06 0  0.99 0.06 0  1.02 0.06 0  1.05 0.06 0  1.08 0.06 0  1.11 0.06 0  1.14 0.06 0  1.17 0.06 0  1.2 0.06 0  1.23 0.06 0  1.26 0.06 0  1.29 0.06 0  1.32 0.06 0  1.35 0.06 0  1.38 0.06 0  1.41 0.06 0  1.44 0.06 0  1.47 0.06 0  1.5 0.06 0  0 0.08 0  0.03 0.08 0  0.06 0.08 0  0.09 0.08 0  0.12 0.08 0  0.15 0.08 0  0.18 0.08 0  0.21 0.08 0  0.24 0.08 0  0.27 0.08 0  0.3 0.08 0  0.33 0.08 0  0.36 0.08 0  0.39 0.08 0  0.42 0.08 0  0.45 0.08 0  0.48 0.08 0  0.51 0.08 0  0.54 0.08 0  0.57 0.08 0  0.6 0.08 0  0.63 0.08 0  0.66 0.08 0  0.6899999999999999 0.08 0  0.72 0.08 0  0.75 0.08 0  0.78 0.08 0  0.8100000000000001 0.08 0  0.84 0.08 0  0.87 0.08 0  0.9 0.08 0  0.93 0.08 0  0.96 0.08 0  0.99 0.08 0  1.02 0.08 0  1.05 0.08 0  1.08 0.08 0  1.11 0.08 0  1.14 0.08 0  1.17 0.08 0  1.2 0.08 0  1.23 0.08 0  1.26 0.08 0  1.29 0.08 0  1.32 0.08 0  1.35 0.08 0  1.38 0.08 0  1.41 0.08 0  1.44 0.08 0  1.47 0.08 0  1.5 0.08 0  0 0.1 0  0.03 0.1 0  0.06 0.1 0  0.09 0.1 0  0.12 0.1 0  0.15 0.1 0  0.18 0.1 0  0.21 0.1 0  0.24 0.1 0  0.27 0.1 0  0.3 0.1 0  0.33 0.1 0  0.36 0.1 0  0.39 0.1 0  0.42 0.1 0  0.45 0.1 0  0.48 0.1 0  0.51 0.1 0  0.54 0.1 0  0.57 0.1 0  0.6 0.1 0  0.63 0.1 0  0.66 0.1 0  0.6899999999999999 0.1 0  0.72 0.1 0  0.75 0.1 0  0.78 0.1 0  0.8100000000000001 0.1 0  0.84 0.1 0  0.87 0.1 0  0.9 0.1 0  0.93 0.1 0  0.96 0.1 0  0.99 0.1 0  1.02 0.1 0  1.05 0.1 0  1.08 0.1 0  1.11 0.1 0  1.14 0.1 0  1.17 0.1 0  1.2 0.1 0  1.23 0.1 0  1.26 0.1 0  1.29 0.1 0  1.32 0.1 0  1.35 0.1 0  1.38 0.1 0  1.41 0.1 0  1.44 0.1 0  1.47 0.1 0  1.5 0.1 0  0 0.12 0  0.03 0.12 0  0.06 0.12 0  0.09 0.12 0  0.12 0.12 0  0.15 0.12 0  0.18 0.12 0  0.21 0.12 0  0.24 0.12 0  0.27 0.12 0  0.3 0.12 0  0.33 0.12 0  0.36 0.12 0  0.39 0.12 0  0.42 0.12 0  0.45 0.12 0  0.48 0.12 0  0.51 0.12 0  0.54 0.12 0  0.57 0.12 0  0.6 0.12 0  0.63 0.12 0  0.66 0.12 0  0.6899999999999999 0.12 0  0.72 0.12 0  0.75 0.12 0  0.78 0.12 0  0.8100000000000001 0.12 0  0.84 0.12 0  0.87 0.12 0  0.9 0.12 0  0.93 0.12 0  0.96 0.12 0  0.99 0.12 0  1.02 0.12 0  1.05 0.12 0  1.08 0.12 0  1.11 0.12 0  1.14 0.12 0  1.17 0.12 0  1.2 0.12 0  1.23 0.12 0  1.26 0.12 0  1.29 0.12 0  1.32 0.12 0  1.35 0.12 0  1.38 0.12 0  1.41 0.12 0  1.44 0.12 0  1.47 0.12 0  1.5 0.12 0  0 0.14 0  0.03 0.14 0  0.06 0.14 0  0.09 0.14 0  0.12 0.14 0  0.15 0.14 0  0.18 0.14 0  0.21 0.14 0  0.24 0.14 0  0.27 0.14 0  0.3 0.14 0  0.33 0.14 0  0.36 0.14 0  0.39 0.14 0  0.42 0.14 0  0.45 0.14 0  0.48 0.14 0  0.51 0.14 0  0.54 0.14 0  0.57 0.14 0  0.6 0.14 0  0.63 0.14 0  0.66 0.14 0  0.6899999999999999 0.14 0  0.72 0.14 0  0.75 0.14 0  0.78 0.14 0  0.8100000000000001 0.14 0  0.84 0.14 0  0.87 0.14 0  0.9 0.14 0  0.93 0.14 0  0.96 0.14 0  0.99 0.14 0  1.02 0.14 0  1.05 0.14 0  1.08 0.14 0  1.11 0.14 0  1.14 0.14 0  1.17 0.14 0  1.2 0.14 0  1.23 0.14 0  1.26 0.14 0  1.29 0.14 0  1.32 0.14 0  1.35 0.14 0  1.38 0.14 0  1.41 0.14 0  1.44 0.14 0  1.47 0.14 0  1.5 0.14 0  0 0.16 0  0.03 0.16 0  0.06 0.16 0  0.09 0.16 0  0.12 0.16 0  0.15 0.16 0  0.18 0.16 0  0.21 0.16 0  0.24 0.16 0  0.27 0.16 0  0.3 0.16 0  0.33 0.16 0  0.36 0.16 0  0.39 0.16 0  0.42 0.16 0  0.45 0.16 0  0.48 0.16 0  0.51 0.16 0  0.54 0.16 0  0.57 0.16 0  0.6 0.16 0  0.63 0.16 0  0.66 0.16 0  0.6899999999999999 0.16 0  0.72 0.16 0  0.75 0.16 0  0.78 0.16 0  0.8100000000000001 0.16 0  0.84 0.16 0  0.87 0.16 0  0.9 0.16 0  0.93 0.16 0  0.96 0.16 0  0.99 0.16 0  1.02 0.16 0  1.05 0.16 0  1.08 0.16 0  1.11 0.16 0  1.14 0.16 0  1.17 0.16 0  1.2 0.16 0  1.23 0.16 0  1.26 0.16 0  1.29 0.16 0  1.32 0.16 0  1.35 0.16 0  1.38 0.16 0  1.41 0.16 0  1.44 0.16 0  1.47 0.16 0  1.5 0.16 0  0 0.18 0  0.03 0.18 0  0.06 0.18 0  0.09 0.18 0  0.12 0.18 0  0.15 0.18 0  0.18 0.18 0  0.21 0.18 0  0.24 0.18 0  0.27 0.18 0  0.3 0.18 0  0.33 0.18 0  0.36 0.18 0  0.39 0.18 0  0.42 0.18 0  0.45 0.18 0  0.48 0.18 0  0.51 0.18 0  0.54 0.18 0  0.57 0.18 0  0.6 0.18 0  0.63 0.18 0  0.66 0.18 0  0.6899999999999999 0.18 0  0.72 0.18 0  0.75 0.18 0  0.78 0.18 0  0.8100000000000001 0.18 0  0.84 0.18 0  0.87 0.18 0  0.9 0.18 0  0.93 0.18 0  0.96 0.18 0  0.99 0.18 0  1.02 0.18 0  1.05 0.18 0  1.08 0.18 0  1.11 0.18 0  1.14 0.18 0  1.17 0.18 0  1.2 0.18 0  1.23 0.18 0  1.26 0.18 0  1.29 0.18 0  1.32 0.18 0  1.35 0.18 0  1.38 0.18 0  1.41 0.18 0  1.44 0.18 0  1.47 0.18 0  1.5 0.18 0  0 0.2 0  0.03 0.2 0  0.06 0.2 0  0.09 0.2 0  0.12 0.2 0  0.15 0.2 0  0.18 0.2 0  0.21 0.2 0  0.24 0.2 0  0.27 0.2 0  0.3 0.2 0  0.33 0.2 0  0.36 0.2 0  0.39 0.2 0  0.42 0.2 0  0.45 0.2 0  0.48 0.2 0  0.51 0.2 0  0.54 0.2 0  0.57 0.2 0  0.6 0.2 0  0.63 0.2 0  0.66 0.2 0  0.6899999999999999 0.2 0  0.72 0.2 0  0.75 0.2 0  0.78 0.2 0  0.8100000000000001 0.2 0  0.84 0.2 0  0.87 0.2 0  0.9 0.2 0  0.93 0.2 0  0.96 0.2 0  0.99 0.2 0  1.02 0.2 0  1.05 0.2 0  1.08 0.2 0  1.11 0.2 0  1.14 0.2 0  1.17 0.2 0  1.2 0.2 0  1.23 0.2 0  1.26 0.2 0  1.29 0.2 0  1.32 0.2 0  1.35 0.2 0  1.38 0.2 0  1.41 0.2 0  1.44 0.2 0  1.47 0.2 0  1.5 0.2 0  0 0.22 0  0.03 0.22 0  0.06 0.22 0  0.09 0.22 0  0.12 0.22 0  0.15 0.22 0  0.18 0.22 0  0.21 0.22 0  0.24 0.22 0  0.27 0.22 0  0.3 0.22 0  0.33 0.22 0  0.36 0.22 0  0.39 0.22 0  0.42 0.22 0  0.45 0.22 0  0.48 0.22 0  0.51 0.22 0  0.54 0.22 0  0.57 0.22 0  0.6 0.22 0  0.63 0.22 0  0.66 0.22 0  0.6899999999999999 0.22 0  0.72 0.22 0  0.75 0.22 0  0.78 0.22 0  0.8100000000000001 0.22 0  0.84 0.22 0  0.87 0.22 0  0.9 0.22 0  0.93 0.22 0  0.96 0.22 0  0.99 0.22 0  1.02 0.22 0  1.05 0.22 0  1.08 0.22 0  1.11 0.22 0  1.14 0.22 0  1.17 0.22 0  1.2 0.22 0  1.23 0.22 0  1.26 0.22 0  1.29 0.22 0  1.32 0.22 0  1.35 0.22 0  1.38 0.22 0  1.41 0.22 0  1.44 0.22 0  1.47 0.22 0  1.5 0.22 0  0 0.24 0  0.03 0.24 0  0.06 0.24 0  0.09 0.24 0  0.12 0.24 0  0.15 0.24 0  0.18 0.24 0  0.21 0.24 0  0.24 0.24 0  0.27 0.24 0  0.3 0.24 0  0.33 0.24 0  0.36 0.24 0  0.39 0.24 0  0.42 0.24 0  0.45 0.24 0  0.48 0.24 0  0.51 0.24 0  0.54 0.24 0  0.57 0.24 0  0.6 0.24 0  0.63 0.24 0  0.66 0.24 0  0.6899999999999999 0.24 0  0.72 0.24 0  0.75 0.24 0  0.78 0.24 0  0.8100000000000001 0.24 0  0.84 0.24 0  0.87 0.24 0  0.9 0.24 0  0.93 0.24 0  0.96 0.24 0  0.99 0.24 0  1.02 0.24 0  1.05 0.24 0  1.08 0.24 0  1.11 0.24 0  1.14 0.24 0  1.17 0.24 0  1.2 0.24 0  1.23 0.24 0  1.26 0.24 0  1.29 0.24 0  1.32 0.24 0  1.35 0.24 0  1.38 0.24 0  1.41 0.24 0  1.44 0.24 0  1.47 0.24 0  1.5 0.24 0  0 0.26 0  0.03 0.26 0  0.06 0.26 0  0.09 0.26 0  0.12 0.26 0  0.15 0.26 0  0.18 0.26 0  0.21 0.26 0  0.24 0.26 0  0.27 0.26 0  0.3 0.26 0  0.33 0.26 0  0.36 0.26 0  0.39 0.26 0  0.42 0.26 0  0.45 0.26 0  0.48 0.26 0  0.51 0.26 0  0.54 0.26 0  0.57 0.26 0  0.6 0.26 0  0.63 0.26 0  0.66 0.26 0  0.6899999999999999 0.26 0  0.72 0.26 0  0.75 0.26 0  0.78 0.26 0  0.8100000000000001 0.26 0  0.84 0.26 0  0.87 0.26 0  0.9 0.26 0  0.93 0.26 0  0.96 0.26 0  0.99 0.26 0  1.02 0.26 0  1.05 0.26 0  1.08 0.26 0  1.11 0.26 0  1.14 0.26 0  1.17 0.26 0  1.2 0.26 0  1.23 0.26 0  1.26 0.26 0  1.29 0.26 0  1.32 0.26 0  1.35 0.26 0  1.38 0.26 0  1.41 0.26 0  1.44 0.26 0  1.47 0.26 0  1.5 0.26 0  0 0.28 0  0.03 0.28 0  0.06 0.28 0  0.09 0.28 0  0.12 0.28 0  0.15 0.28 0  0.18 0.28 0  0.21 0.28 0  0.24 0.28 0  0.27 0.28 0  0.3 0.28 0  0.33 0.28 0  0.36 0.28 0  0.39 0.28 0  0.42 0.28 0  0.45 0.28 0  0.48 0.28 0  0.51 0.28 0  0.54 0.28 0  0.57 0.28 0  0.6 0.28 0  0.63 0.28 0  0.66 0.28 0  0.6899999999999999 0.28 0  0.72 0.28 0  0.75 0.28 0  0.78 0.28 0  0.8100000000000001 0.28 0  0.84 0.28 0  0.87 0.28 0  0.9 0.28 0  0.93 0.28 0  0.96 0.28 0  0.99 0.28 0  1.02 0.28
[...]
<PointData  Scalars="sensitivity"> 
<DataArray  type="Float64"  Name="sensitivity"  format="ascii">-5.3491868979639730e-07  -1.0049280042716513e-05  -4.1502522622512368e-05  -1.0328537831700640e-04  -1.9307461974993049e-04  -2.9741199718841493e-04  -4.0123278942134926e-04  -4.9482048173329256e-04  -5.7389540600282331e-04  -6.3716453168532507e-04  -6.8487049663656799e-04  -7.1839578810222436e-04  -7.3968952640920992e-04  -7.5050848130209279e-04  -7.5235226823857824e-04  -7.4698813990177514e-04  -7.3660687832891101e-04  -7.2341947342704290e-04  -7.0929288720116045e-04  -6.9564359922890165e-04  -6.8339029095579003e-04  -6.7298763237348517e-04  -6.6465899488186812e-04  -6.5865326710137957e-04  -6.5526483513844236e-04  -6.5464849348509976e-04  -6.5669918162226883e-04  -6.6117473288799405e-04  -6.6794460555676366e-04  -6.7705731044383753e-04  -6.8848274555216387e-04  -7.0175301920804819e-04  -7.1580445564386791e-04  -7.2904592179128989e-04  -7.3955883863995693e-04  -7.4543602161250935e-04  -7.4507601072507188e-04  -7.3701721666573458e-04  -7.1940938558825974e-04  -6.8991884266150826e-04  -6.4645747723091149e-04  -5.8801194306453417e-04  -5.1472602510862434e-04  -4.2772767798974842e-04  -3.2996045801801438e-04  -2.2823915905309517e-04  -1.3460668539739737e-04  -6.2855799551571808e-05  -2.0426032673906817e-05  -2.5114129421682148e-06  -8.5974164306504740e-09  -5.6135409638554890e-06  -7.0878144258976992e-05  -2.8448298748599073e-04  -7.2816387491187742e-04  -1.3982889079348045e-03  -2.1952147176508429e-03  -2.9977650444210505e-03  -3.7251306959545216e-03  -4.3422376467242927e-03  -4.8390688410264457e-03  -5.2168378372895547e-03  -5.4851340075611427e-03  -5.6587932468845289e-03  -5.7515646644269031e-03  -5.7743477957858886e-03  -5.7395795415010973e-03  -5.6636244806569759e-03  -5.5637616801629507e-03  -5.4548128976081587e-03  -5.3482341702261547e-03  -5.2517482680763741e-03  -5.1692088749246707e-03  -5.1021919067855302e-03  -5.0523719145187029e-03  -5.0221469627538722e-03  -5.0131696522707388e-03  -5.0249535455194217e-03  -5.0554861434875236e-03  -5.1033896084832905e-03  -5.1690784621834769e-03  -5.2530850719430151e-03  -5.3529480652872484e-03  -5.4615271559193953e-03  -5.5673422658199488e-03  -5.6559036487112378e-03  -5.7121882541682177e-03  -5.7235651249835859e-03  -5.6795090957009915e-03  -5.5672622853208511e-03  -5.3695701772075825e-03  -5.0694258894727973e-03  -4.6571558488345032e-03  -4.1317266869520010e-03  -3.4979220548184632e-03  -2.7700949332112382e-03  -1.9885469877268312e-03  -1.2361732249028729e-03  -6.2486001239182940e-04  -2.3550635549190283e-04  -5.1982233368522401e-05  -1.7531505827260005e-06  -1.7374955090884906e-05  -1.5226023640510926e-04  -4.8710040511912116e-04  -1.1688862063378091e-03  -2.1801981059527175e-03  -3.3477855166074784e-03  -4.4902815771863244e-03  -5.5038711773168578e-03  -6.3537355340499199e-03  -7.0340152009808529e-03  -7.5480949412473266e-03  -7.9100688195840874e-03  -8.1425727353478510e-03  -8.2646439570055186e-03  -8.2881818851613699e-03  -8.2283436442650484e-03  -8.1093443455571342e-03  -7.9575599570985839e-03  -7.7945457970362945e-03  -7.6366279189221190e-03  -7.4949741612633930e-03  -7.3745721064637608e-03  -7.2765264191431058e-03  -7.2026557809030762e-03  -7.1569106136338927e-03  -7.1424600678751194e-03  -7.1586129376149344e-03  -7.2015482340045331e-03  -7.2685022696818069e-03  -7.3606653803997358e-03  -7.4805547640991168e-03  -7.6261086798775904e-03  -7.7876291578086766e-03  -7.9486962142375495e-03  -8.0879418767510775e-03  -8.1826095528919167e-03  -8.2147370690121881e-03  -8.1721768375660128e-03  -8.0397106016173239e-03  -7.7922074268254966e-03  -7.4024756905062099e-03  -6.8556681532029118e-03  -6.1515530168822557e-03  -5.2938085396941311e-03  -4.2898689678365562e-03  -3.1770713969155756e-03  -2.0566300479841447e-03  -1.0987706148154722e-03  -4.5917009700723000e-04  -1.4045141839543176e-04  -1.0576895198121003e-05  -3.1000427407120914e-05  -2.6904371296338685e-04  -7.5801119024651933e-04  -1.6621056950867177e-03  -2.8828314136866064e-03  -4.1618689974162607e-03  -5.3155326110927020e-03  -6.2865417502629851e-03  -7.0827827525760979e-03  -7.7148266799818930e-03  -8.1852374009505624e-03  -8.5086488281190947e-03  -8.7129870143252477e-03  -8.8159727094340064e-03  -8.8192695258345593e-03  -8.7315675712453435e-03  -8.5807701077000257e-03  -8.3993438273279337e-03  -8.2110184806645815e-03  -8.0325154638499017e-03  -7.8753929682446686e-03  -7.7435669086320406e-03  -7.6360947224736369e-03  -7.5542396901751661e-03  -7.5033571709087468e-03  -7.4880332668802530e-03  -7.5071802756534727e-03  -7.5549194834454506e-03  -7.6270441426650910e-03  -7.7261445260655860e-03  -7.8579978812305176e-03  -8.0222443284044195e-03  -8.2082042957558159e-03  -8.3973451014854646e-03  -8.5648917979305617e-03  -8.6833942048794507e-03  -8.7343250381555718e-03  -8.7131549497044061e-03  -8.6131095962864723e-03  -8.4077240152493592e-03  -8.0608040251298006e-03  -7.5537328777961280e-03  -6.8920058373906842e-03  -6.0790163702280284e-03  -5.1017552067361607e-03  -3.9555819082363617e-03  -2.7035300318373765e-03  -1.5405925002423800e-03  -6.9795865611097809e-04  -2.4994444205431903e-04  -2.5322770595670315e-05  -3.5031715491828203e-05  -4.3430320706391932e-04  -1.3617283154550085e-03  -2.8619096578606481e-03  -4.5051936349361109e-03  -5.8627375149893097e-03  -6.8351179390635447e-03  -7.5223592853632644e-03  -8.0473011001453900e-03  -8.4620329422414146e-03  -8.7642926913437062e-03  -8.9628128182520066e-03  -9.0891643321759103e-03  -9.1512655741027762e-03  -9.1224833582920738e-03  -8.9927707874564531e-03  -8.7952075119050784e-03  -8.5738286227952775e-03  -8.3547596553270771e-03  -8.1530769463060131e-03  -7.9800086254881615e-03  -7.8374984265639509e-03  -7.7212113592025709e-03  -7.6315030617154266e-03  -7.5757215917656804e-03  -7.5603203972548260e-03  -7.5835447636356038e-03  -7.6364962230229989e-03  -7.7127247526964805e-03  -7.8170212838513647e-03  -7.9606907685839962e-03  -8.1463775789644092e-03  -8.3618150258315677e-03  -8.5859265062851638e-03  -8.7900928212939697e-03  -8.9395051919537900e-03  -9.0146921954336618e-03  -9.0279706979854418e-03  -8.9954813762929530e-03  -8.8974458752176730e-03  -8.6889379071753842e-03  -8.3511506449974529e-03  -7.9079200535596035e-03  -7.3652444843699426e-03  -6.6525906473672396e-03  -5.6235218382202599e-03  -4.1994949192875842e-03  -2.5838046649293437e-03  -1.1961204581688327e-03  -3.8038421741011253e-04  -3.7655603483996517e-05  -2.6575489980634874e-05  -8.2325033357083857e-04  -3.4812597666232579e-03  -7.0104839068338923e-03  -9.5319495196290356e-03  -1.0569770642913815e-02  -1.0638967798470872e-02  -1.0346270949318788e-02  -1.0044473273570546e-02  -9.8289217252925821e-03  -9.6677134196875361e-03  -9.5470084091104288e-03  -9.4921040170910485e-03  -9.4781139196423066e-03  -9.4090527248350993e-03  -9.2254299553574063e-03  -8.9625218485483507e-03  -8.6871586510535587e-03  -8.4293298178162047e-03  -8.1974836928860994e-03  -8.0021480032843439e-03  -7.8441513934079336e-03  -7.7151301396366501e-03  -7.6144725441668172e-03  -7.5522315160314376e-03  -7.5370462381679961e-03  -7.5660838950292134e-03  -7.6261457257088324e-03  -7.7069765387339974e-03  -7.8159061937720219e-03  -7.9728457964142931e-03  -8.1858601916735864e-03  -8.4400023724659073e-03  -8.7100744162816168e-03  -8.9631337732650508e-03  -9.1537494042655248e-03  -9.2607852285192162e-03  -9.3289090564765940e-03  -9.4242686045607361e-03  -9.5519315857908859e-03  -9.6656880463598851e-03  -9.7702237934787304e-03  -9.9633226611155982e-03  -1.0292018902065447e-02  -1.0578302372101289e-02  -1.0379475614337299e-02  -9.1179729530784168e-03  -6.2560025210638181e-03  -2.7290538194392200e-03  -5.7540333539487793e-04  -3.6316601121346719e-05  -1.0022999867066467e-04  -3.3309012731552205e-03  -1.1999548138805775e-02  -1.9143906693820434e-02  -2.1802395045185698e-02  -2.0969193364668959e-02  -1.8781686389448580e-02  -1.6363775086130343e-02  -1.4344666998705400e-02  -1.2786526414040749e-02  -1.1550273346201970e-02  -1.0631965309019716e-02  -1.0095758153457573e-02  -9.8663515508277105e-03  -9.7081372178570140e-03  -9.4551039461291831e-03  -9.1141787205554752e-03  -8.7764365104184873e-03  -8.4829798508629789e-03  -8.2252983231252044e-03  -8.0064030417297538e-03  -7.8281231596853042e-03  -7.6806542227484060e-03  -7.5641076986817249e-03  -7.4924127435800434e-03  -7.4766362985290566e-03  -7.5126508505472308e-03  -7.5819271339653107e-03  -7.6681217042184049e-03  -7.7802374602837197e-03  -7.9496496402324136e-03  -8.1929025983882818e-03  -8.4926518853759205e-03  -8.8212482656853438e-03  -9.1439332926726291e-03  -9.4007646525682258e-03  -9.5703522882649196e-03  -9.7588063163212124e-03  -1.0133928702204203e-02  -1.0773856657060696e-02  -1.1645593237922846e-02  -1.2749825808328386e-02  -1.4220594516822402e-02  -1.6124322301059892e-02  -1.8224627549893624e-02  -2.0105840600900926e-02  -2.1199960689331783e-02  -1.9930209485499895e-02  -1.2507988176990354e-02  -2.2620864477765289e-03  -2.4448053072226407e-05  -1.8558309032287782e-03  -1.9294930638171590e-02  -3.0930631920490594e-02  -3.2698158835138685e-02  -3.2518441553944608e-02  -3.0608631417331250e-02  -2.8082888636681305e-02  -2.4944572508955976e-02  -2.1561525422319219e-02  -1.8451408898853106e-02  -1.5629330070925450e-02  -1.3205164974424201e-02  -1.1538702483864977e-02  -1.0668313680803428e-02  -1.0171399639425397e-02  -9.7097099549745894e-03  -9.2492759016672560e-03  -8.8378380385592224e-03  -8.4908957365994273e-03  -8.2070888841625673e-03  -7.9788176993501447e-03  -7.7877673858450314e-03  -7.6222053247152477e-03  -7.4889911721622779e-03  -7.4076962582869206e-03  -7.3912674754987619e-03  -7.4343969120178799e-03  -7.5134638845823021e-03  -7.6046707179326031e-03  -7.7179666180979874e-03  -7.9007179362463632e-03  -8.1811537832194269e-03  -8.5331310905879601e-03  -8.9337213389341485e-03  -9.3779063716785925e-03  -9.7939885701039415e-03  -1.0138581139192825e-02  -1.0627944455205547e-02  -1.1635757311289342e-02  -1.3379797188941509e-02  -1.5768914457612578e-02  -1.8429926563086101e-02  -2.1073916764881025e-02  -2.3693580053140165e-02  -2.6301131006574115e-02  -2.9140417329152006e-02  -3.2638735448553918e-02  -3.7686597008456120e-02  -4.2972729696285399e-02  -1.7568697800147730e-02  -1.2677097178454721e-04  -7.7639468903742802e-03  -4.4672905720268226e-02  -4.2641588667166386e-02  -3.7060932192890979e-02  -3.4895778655049808e-02  -3.3517793530041091e-02  -3.1965571880920786e-02  -3.0491561134363711e-02  -2.8386590011624632e-02  -2.5251375456392028e-02  -2.1535156102581908e-02  -1.7908185179913209e-02  -1.4885731929915590e-02  -1.2863588003845235e-02  -1.1487514038541953e-02  -1.0352075335309598e-02  -9.4302481270832021e-03  -8.9097587640267623e-03  -8.5575121927221644e-03  -8.1731844710803050e-03  -7.9065593911051158e-03  -7.7092124486429006e-03  -7.5279942710450550e-03  -7.3794485679161623e-03  -7.2934679380416804e-03  -7.2814661919344105e-03  -7.3354554245317321e-03  -7.4269731594854439e-03  -7.5223975703963787e-03  -7.6313619832020898e-03  -7.8273362512009965e-03  -8.1714650941190920e-03  -8.6277131762872040e-03  -9.1506117594406661e-03  -9.8057089494239646e-03  -1.0588965615408381e-02  -1.1379350265856764e-02  -1.2465606311603565e-02  -1.4537390832338421e-02  -1.7860291436411570e-02  -2.1771565477090870e-02  -2.5085109101463027e-02  -2.7149922770512560e-02  -2.8713242019511996e-02  -3.0473223766966949e-02  -3.2436780371047358e-02  -3.4703612576744675e-02  -3.8123536880026461e-02  -4.6180653796478580e-02  -5.2491315999031000e-02  -6.9011590940079139e-03  -1.6349778405421202e-02  -3.1868352222272814e-02  -3.3455849224662798e-02  -3.2905739290878075e-02  -3.2126041498231526e-02  -3.1431028863634906e-02  -3.1291694587710833e-02  -3.1020662148894526e-02  -3.0670116786585665e-02  -2.9394421349905307e-02  -2.6235257500731940e-02  -2.2411941849725482e-02  -1.9304180037925934e-02  -1.6994624480149812e-02  -1.4849946789477507e-02  -1.2277037952991940e-02  -1.0230240548625402e-02  -8.9601702939897040e-03  -8.7170862880216748e-03  -8.3029767052986096e-03  -7.9093519576035626e-03  -7.6587887454029179e-03  -7.4497753206232654e-03  -7.2755641651594165e-03  -7.1802649514614370e-03  -7.1750409550545577e-03  -7.2460843986660904e-03  -7.3625924089838757e-03  -7.4784792954449720e-03  -7.5900854035269036e-03  -7.7929071540663239e-03  -8.2213307516737551e-03  -8.9001682176677466e-03  -9.7602558678580188e-03  -1.0853439293255985e-02  -1.2270974639126487e-02  -1.3823491248622380e-02  -1.5656502818820976e-02  -1.8618958256799021e-02  -2.2774388558056659e-02  -2.6625588448747236e-02  -2.8805441627980096e-02  -2.9840996095377548e-02  -3.0509523623317193e-02  -3.0832902266556682e-02  -3.1011387781771562e-02  -3.1535285731082448e-02  -3.1649920308814111e-02  -3.1711504053961129e-02  -3.3457369554494160e-02  -1.8102080439307631e-02  -2.1200757795974412e-02  -3.6924284829658219e-02  -3.4939095006603721e-02  -3.3776435001266529e-02  -3.2360501142465352e-02  -3.1425659283610428e-02  -3.0900732381061766e-02  -3.0913969793321984e-02  -3.1134368250070165e-02  -3.0988725434862609e-02  -2.9638445830870660e-02  -2.6428114991790937e-02  -2.2923455981029135e-02  -2.0876074113214852e-02  -1.9534654519859803e-02  -1.6828072686897885e-02  -1.2998258052178300e-02  -1.0476903928366846e-02  -9.3926141250597426e-03  -8.7428198484548001e-03  -8.1589921689134339e-03  -7.7574843088228946e-03  -7.4845504049867824e-03  -7.2792935937202605e-03  -7.1649382833306229e-03  -7.1593246276515235e-03  -7.2481316021418777e-03  -7.4066457591500101e-03  -7.5891587125584492e-03  -7.7757376966458760e-03  -8.0573704320050562e-03  -8.6294888258547572e-03  -9.6684824651463597e-03  -1.1224305493554847e-02  -1.3239356475262519e-02  -1.5595705334077505e-02  -1.7902859532553515e-02  -2.0079424858074294e-02  -2.2942326928069755e-02  -2.6534879895771100e-02  -2.9364917823652328e-02  -3.0638724556037462e-02  -3.1096306604675682e-02  -3.1098793632445682e-02  -3.0996809574006256e-02  -3.1604194908644058e-02  -3.2795453215453206e-02  -3.4063423547302005e-02  -3.4927744928918446e-02  -3.6964531738663882e-02  -1.9692672615028332e-02  -3.0671960831941646e-02  -5.0667909863581821e-02  -4.1153686584719996e-02  -3.6468774894009050e-02  -3.4638586518962108e-02  -3.3195666654458701e-02  -3.2082406752741245e-02  -3.1621892593499935e-02  -3.1796270804428602e-02  -3.1939204595736626e-02  -3.1409094357979075e-02  -2.9946518543225723e-02  -2.7280317082840032e-02  -2.4568250485468700e-02  -2.2947631598844297e-02  -2.1241860499923541e-02  -1.7905591856335432e-02  -1.4305908481170374e-02  -1.1984077209979061e-02  -1.0591859906019947e-02  -9.4798239272094412e-03  -8.6585094895282929e-03  -8.1510626231736123e-03  -7.8409047695408070e-03  -7.6735854807805084e-03  -7.6510943763164196e-03  -7.7649367313827036e-03  -8.0031509574355116e-03  -8.3389774265732169e-03  -8.7544303079880956e-03  -9.3436074138742321e-03  -1.0333029364202410e-02  -1.1964814181345962e-02  -1.4394286588531034e-02  -1.7503288321616999e-02  -2.0592350717625683e-02  -2.3063088792951384e-02  -2.4931490679424927e-02  -2.6950569321957454e-02  -2.9273080671050531e-02  -3.0966349873539138e-02  -3.1629731600332812e-02  -3.1457502301040066e-02  -3.1330549967757568e-02  -3.2129436063461490e-02  -3.3457950904191798e-02  -3.4814174562460436e-02  -3.6728296350308734e-02  -4.2423361724039994e-02  -5.2106605653879416e-02  -2.7906476230182845e-02  -3.6861834770965669e-02  -6.3545426227276047e-02  -4.9908567054779217e-02  -4.0751625668729266e-02  -3.6346584700450213e-02  -3.4682989579515051e-02  -3.3317787432106040e-02  -3.2166781339833951e-02  -3.1864519575016112e-02  -3.2228642157288441e-02  -3.2471577328262731e-02  -3.1936410632047482e-02  -3.0619181541238862e-02  -2.8708235242950939e-02  -2.6539441693122726e-02  -2.4239135191971847e-02  -2.1626841753239524e-02  -1.9005299817621994e-02  -1.6819127445014039e-02  -1.5091546593758200e-02  -1.3436753020975502e-02  -1.1934871334034902e-02  -1.0909922519350055e-02  -1.0356499899740877e-02  -1.0080248046844285e-02  -1.0010355280894910e-02  -1.0150831556365720e-02  -1.0508325725096388e-02  -1.1061768073309275e-02  -1.1790563447261471e-02  -1.2796056026828675e-02  -1.4321771766207662e-02  -1.6551003417966045e-02  -1.9408384896546754e-02  -2.2593247057184108e-02  -2.5441859333749275e-02  -2.7318871479553492e-02  -2.8680166211363448e-02  -3.0111103052727215e-02  -3.1351631550014566e-02  -3.1817564449453245e-02  -3.1411338600473966e-02  -3.1090283441479710e-02  -3.1774296294730525e-02  -3.3185655886380838e-02  -3.4662716776448881e-02  -3.6644116016405014e-02  -4.1229236602415099e-02  -5.0280905985800976e-02  -6.3688433532398767e-02  -3.5614525710035080e-02  -3.5819667943333675e-02  -6.5243655191463051e-02  -5.2865167132210504e-02  -4.3729333798509032e-02  -3.8328960666929285e-02  -3.5540816122459511e-02  -3.4100439530977772e-02  -3.2773390513675948e-02  -3.1679213311784950e-02  -3.1497032257798409e-02  -3.2023690802812234e-02  -3.2598791081390119e-02  -3.2474854692823886e-02  -3.1466378781411786e-02  -2.9934682520959689e-02  -2.7885761107568321e-02  -2.5256098450546147e-02  -2.2882789857268257e-02  -2.1464082529372486e-02  -2.0452633803847937e-02  -1.9145530136445224e-02  -1.7630889983220904e-02  -1.6480104722615522e-02  -1.5902093990319346e-02  -1.5683258664924881e-02  -1.5648448502870754e-02  -1.5802607696814533e-02  -1.6186344657327122e-02  -1.6758544339435421e-02  -1.7448703796664231e-02  -1.8346455561467294e-02  -1.9755952998966833e-02  -2.1847500506797901e-02  -2.4264777434083271e-02  -2.6477883254935330e-02  -2.8367708727523429e-02  -2.9951411071920033e-02  -3.1192578955743171e-02  -3.1908541644964213e-02  -3.1788209440409339e-02  -3.1097382788093070e-02  -3.0686962714978099e-02  -3.1163591712665108e-02  -3.2441682797402581e-02  -3.3923935093275064e-02  -3.5623565864602066e-02  -3.8405363243675647e-02  -4.3550139116597879e-02  -5.2377462822267712e-02  -6.4638230526743362e-02  -3.6931582181746650e-02  -2.8186650136008639e-02  -5.5017079403990025e-02  -4.7853449559026227e-02  -4.2331817871303364e-02  -3.8708592675100184e-02  -3.6264059063494482e-02  -3.4605285236777542e-02  -3.3409768885365086e-02  -3.2184113754655817e-02  -3.1205459570719341e-02  -3.0984019943799027e-02  -3.1474912851533393e-02  -3.2257225450386416e-02  -3.2602031607428250e-02  -3.2017792990184722e-02  -3.0780811471320606e-02  -2.9185117573575035e-02  -2.7439558874279586e-02  -2.6118388842485435e-02  -2.5317338937484890e-02  -2.4460243045072438e-02  -2.3418126894437577e-02  -2.2637651606318129e-02  -2.2377946554042003e-02  -2.2460683748615949e-02  -2.2626375028048620e-02  -2.2813540339840187e-02  -2.3067760827206980e-02  -2.3375755526810711e-02  -2.3691660670781701e-02  -2.4097650059348934e-02  -2.4838780247959959e-02  -2.6080045831546422e-02  -2.7617306157063481e-02  -2.9104624171240434e-02  -3.0477676451474825e-02  -3.1588903708480956e-02  -3.1934499746413283e-02  -3.1367994080856998e-02  -3.0591941285353464e-02  -3.0333405430169061e-02  -3.0802609662859814e-02  -3.1848698422606042e-02  -3.3118196056280448e-02  -3.4451426336574061e-02  -3.6104499923410124e-02  -3.8441664003942708e-02  -4.1858291213036615e-02  -4.6918207591039818e-02  -5.3860943270939279e-02  -3.0985771637062575e-02  -1.9553398336118299e-02  -3.9587331159937622e-02  -3.8863194974125458e-02  -3.8025891356227325e-02  -3.7036056645967333e-02  -3.5942131755253667e-02  -3.4850108690252353e-02  -3.3876731751625866e-02  -3.2910218278808717e-02  -3.1827511918735792e-02  -3.0901118516453465e-02  -3.0536531972052600e-02  -3.0869745407828813e-02  -3.1641807524155907e-02  -3.2199462804902761e-02  -3.1985076937337459e-02  -3.1207469024058427e-02  -3.0388679140649962e-02  -2.9786333597846947e-02  -2.9393341798364878e-02  -2.8978485594371751e-02  -2.8409404735420838e-02  -2.7909282581154396e-02  -2.7742211025074417e-02  -2.7863293224968885e-02  -2.8045423077742600e-02  -2.8161329669848814e-02  -2.8228541843762816e-02  -2.8292171085919755e-02  -2.8376274938891836e-02  -2.8522109041190211e-02  -