<?xml version="1.0"?>
<VTKFile type="UnstructuredGrid"  version="0.1"  >
<UnstructuredGrid>
<Piece  NumberOfPoints="2601" NumberOfCells="5000">
<Points>
<DataArray  type="Float64"  NumberOfComponents="3"  format="ascii">0 0 0  0.03 0 0  0.06 0 0  0.09 0 0  0.12 0 0  0.15 0 0  0.18 0 0  0.21 0 0  0.24 0 0  0.27 0 0  0.3 0 0  0.33 0 0  0.36 0 0  0.39 0 0  0.42 0 0  0.45 0 0  0.48 0 0  0.51 0 0  0.54 0 0  0.57 0 0  0.6 0 0  0.63 0 0  0.66 0 0  0.6899999999999999 0 0  0.72 0 0  0.75 0 0  0.78 0 0  0.8100000000000001 0 0  0.84 0 0  0.87 0 0  0.9 0 0  0.93 0 0  0.96 0 0  0.99 0 0  1.02 0 0  1.05 0 0  1.08 0 0  1.11 0 0  1.14 0 0  1.17 0 0  1.2 0 0  1.23 0 0  1.26 0 0  1.29 0 0  1.32 0 0  1.35 0 0  1.38 0 0  1.41 0 0  1.44 0 0  1.47 0 0  1.5 0 0  0 0.02 0  0.03 0.02 0  0.06 0.02 0  0.09 0.02 0  0.12 0.02 0  0.15 0.02 0  0.18 0.02 0  0.21 0.02 0  0.24 0.02 0  0.27 0.02 0  0.3 0.02 0  0.33 0.02 0  0.36 0.02 0  0.39 0.02 0  0.42 0.02 0  0.45 0.02 0  0.48 0.02 0  0.51 0.02 0  0.54 0.02 0  0.57 0.02 0  0.6 0.02 0  0.63 0.02 0  0.66 0.02 0  0.6899999999999999 0.02 0  0.72 0.02 0  0.75 0.02 0  0.78 0.02 0  0.8100000000000001 0.02 0  0.84 0.02 0  0.87 0.02 0  0.9 0.02 0  0.93 0.02 0  0.96 0.02 0  0.99 0.02 0  1.02 0.02 0  1.05 0.02 0  1.08 0.02 0  1.11 0.02 0  1.14 0.02 0  1.17 0.02 0  1.2 0.02 0  1.23 0.02 0  1.26 0.02 0  1.29 0.02 0  1.32 0.02 0  1.35 0.02 0  1.38 0.02 0  1.41 0.02 0  1.44 0.02 0  1.47 0.02 0  1.5 0.02 0  0 0.04 0  0.03 0.04 0  0.06 0.04 0  0.09 0.04 0  0.12 0.04 0  0.15 0.04 0  0.18 0.04 0  0.21 0.04 0  0.24 0.04 0  0.27 0.04 0  0.3 0.04 0  0.33 0.04 0  0.36 0.04 0  0.39 0.04 0  0.42 0.04 0  0.45 0.04 0  0.48 0.04 0  0.51 0.04 0  0.54 0.04 0  0.57 0.04 0  0.6 0.04 0  0.63 0.04 0  0.66 0.04 0  0.6899999999999999 0.04 0  0.72 0.04 0  0.75 0.04 0  0.78 0.04 0  0.8100000000000001 0.04 0  0.84 0.04 0  0.87 0.04 0  0.9 0.04 0  0.93 0.04 0  0.96 0.04 0  0.99 0.04 0  1.02 0.04 0  1.05 0.04 0  1.08 0.04 0  1.11 0.04 0  1.14 0.04 0  1.17 0.04 0  1.2 0.04 0  1.23 0.04 0  1.26 0.04 0  1.29 0.04 0  1.32 0.04 0  1.35 0.04 0  1.38 0.04 0  1.41 0.04 0  1.44 0.04 0  1.47 0.04 0  1.5 0.04 0  0 0.06 0  0.03 0.06 0  0.06 0.06 0  0.09 0.06 0  0.12 0.06 0  0.15 0.06 0  0.18 0.06 0  0.21 0.06 0  0.24 0.06 0  0.27 0.06 0  0.3 0.06 0  0.33 0.06 0  0.36 0.06 0  0.39 0.06 0  0.42 0.06 0  0.45 0.06 0  0.48 0.06 0  0.51 0.06 0  0.54 0.06 0  0.57 0.06 0  0.6 0.06 0  0.63 0.06 0  0.66 0.06 0  0.6899999999999999 0.06 0  0.72 0.06 0  0.75 0.06 0  0.78 0.06 0  0.8100000000000001 0.06 0  0.84 0.06 0  0.87 0.06 0  0.9 0.06 0  0.93 0.06 0  0.96 0.06 0  0.99 0.06 0  1.02 0.06 0  1.05 0.06 0  1.08 0.06 0  1.11 0.06 0  1.14 0.06 0  1.17 0.06 0  1.2 0.06 0  1.23 0.06 0  1.26 0.06 0  1.29 0.06 0  1.32 0.06 0  1.35 0.06 0  1.38 0.06 0  1.41 0.06 0  1.44 0.06 0  1.47 0.06 0  1.5 0.06 0  0 0.08 0  0.03 0.08 0  0.06 0.08 0  0.09 0.08 0  0.12 0.08 0  0.15 0.08 0  0.18 0.08 0  0.21 0.08 0  0.24 0.08 0  0.27 0.08 0  0.3 0.08 0  0.33 0.08 0  0.36 0.08 0  0.39 0.08 0  0.42 0.08 0  0.45 0.08 0  0.48 0.08 0  0.51 0.08 0  0.54 0.08 0  0.57 0.08 0  0.6 0.08 0  0.63 0.08 0  0.66 0.08 0  0.6899999999999999 0.08 0  0.72 0.08 0  0.75 0.08 0  0.78 0.08 0  0.8100000000000001 0.08 0  0.84 0.08 0  0.87 0.08 0  0.9 0.08 0  0.93 0.08 0  0.96 0.08 0  0.99 0.08 0  1.02 0.08 0  1.05 0.08 0  1.08 0.08 0  1.11 0.08 0  1.14 0.08 0  1.17 0.08 0  1.2 0.08 0  1.23 0.08 0  1.26 0.08 0  1.29 0.08 0  1.32 0.08 0  1.35 0.08 0  1.38 0.08 0  1.41 0.08 0  1.44 0.08 0  1.47 0.08 0  1.5 0.08 0  0 0.1 0  0.03 0.1 0  0.06 0.1 0  0.09 0.1 0  0.12 0.1 0  0.15 0.1 0  0.18 0.1 0  0.21 0.1 0  0.24 0.1 0  0.27 0.1 0  0.3 0.1 0  0.33 0.1 0  0.36 0.1 0  0.39 0.1 0  0.42 0.1 0  0.45 0.1 0  0.48 0.1 0  0.51 0.1 0  0.54 0.1 0  0.57 0.1 0  0.6 0.1 0  0.63 0.1 0  0.66 0.1 0  0.6899999999999999 0.1 0  0.72 0.1 0  0.75 0.1 0  0.78 0.1 0  0.8100000000000001 0.1 0  0.84 0.1 0  0.87 0.1 0  0.9 0.1 0  0.93 0.1 0  0.96 0.1 0  0.99 0.1 0  1.02 0.1 0  1.05 0.1 0  1.08 0.1 0  1.11 0.1 0  1.14 0.1 0  1.17 0.1 0  1.2 0.1 0  1.23 0.1 0  1.26 0.1 0  1.29 0.1 0  1.32 0.1 0  1.35 0.1 0  1.38 0.1 0  1.41 0.1 0  1.44 0.1 0  1.47 0.1 0  1.5 0.1 0  0 0.12 0  0.03 0.12 0  0.06 0.12 0  0.09 0.12 0  0.12 0.12 0  0.15 0.12 0  0.18 0.12 0  0.21 0.12 0  0.24 0.12 0  0.27 0.12 0  0.3 0.12 0  0.33 0.12 0  0.36 0.12 0  0.39 0.12 0  0.42 0.12 0  0.45 0.12 0  0.48 0.12 0  0.51 0.12 0  0.54 0.12 0  0.57 0.12 0  0.6 0.12 0  0.63 0.12 0  0.66 0.12 0  0.6899999999999999 0.12 0  0.72 0.12 0  0.75 0.12 0  0.78 0.12 0  0.8100000000000001 0.12 0  0.84 0.12 0  0.87 0.12 0  0.9 0.12 0  0.93 0.12 0  0.96 0.12 0  0.99 0.12 0  1.02 0.12 0  1.05 0.12 0  1.08 0.12 0  1.11 0.12 0  1.14 0.12 0  1.17 0.12 0  1.2 0.12 0  1.23 0.12 0  1.26 0.12 0  1.29 0.12 0  1.32 0.12 0  1.35 0.12 0  1.38 0.12 0  1.41 0.12 0  1.44 0.12 0  1.47 0.12 0  1.5 0.12 0  0 0.14 0  0.03 0.14 0  0.06 0.14 0  0.09 0.14 0  0.12 0.14 0  0.15 0.14 0  0.18 0.14 0  0.21 0.14 0  0.24 0.14 0  0.27 0.14 0  0.3 0.14 0  0.33 0.14 0  0.36 0.14 0  0.39 0.14 0  0.42 0.14 0  0.45 0.14 0  0.48 0.14 0  0.51 0.14 0  0.54 0.14 0  0.57 0.14 0  0.6 0.14 0  0.63 0.14 0  0.66 0.14 0  0.6899999999999999 0.14 0  0.72 0.14 0  0.75 0.14 0  0.78 0.14 0  0.8100000000000001 0.14 0  0.84 0.14 0  0.87 0.14 0  0.9 0.14 0  0.93 0.14 0  0.96 0.14 0  0.99 0.14 0  1.02 0.14 0  1.05 0.14 0  1.08 0.14 0  1.11 0.14 0  1.14 0.14 0  1.17 0.14 0  1.2 0.14 0  1.23 0.14 0  1.26 0.14 0  1.29 0.14 0  1.32 0.14 0  1.35 0.14 0  1.38 0.14 0  1.41 0.14 0  1.44 0.14 0  1.47 0.14 0  1.5 0.14 0  0 0.16 0  0.03 0.16 0  0.06 0.16 0  0.09 0.16 0  0.12 0.16 0  0.15 0.16 0  0.18 0.16 0  0.21 0.16 0  0.24 0.16 0  0.27 0.16 0  0.3 0.16 0  0.33 0.16 0  0.36 0.16 0  0.39 0.16 0  0.42 0.16 0  0.45 0.16 0  0.48 0.16 0  0.51 0.16 0  0.54 0.16 0  0.57 0.16 0  0.6 0.16 0  0.63 0.16 0  0.66 0.16 0  0.6899999999999999 0.16 0  0.72 0.16 0  0.75 0.16 0  0.78 0.16 0  0.8100000000000001 0.16 0  0.84 0.16 0  0.87 0.16 0  0.9 0.16 0  0.93 0.16 0  0.96 0.16 0  0.99 0.16 0  1.02 0.16 0  1.05 0.16 0  1.08 0.16 0  1.11 0.16 0  1.14 0.16 0  1.17 0.16 0  1.2 0.16 0  1.23 0.16 0  1.26 0.16 0  1.29 0.16 0  1.32 0.16 0  1.35 0.16 0  1.38 0.16 0  1.41 0.16 0  1.44 0.16 0  1.47 0.16 0  1.5 0.16 0  0 0.18 0  0.03 0.18 0  0.06 0.18 0  0.09 0.18 0  0.12 0.18 0  0.15 0.18 0  0.18 0.18 0  0.21 0.18 0  0.24 0.18 0  0.27 0.18 0  0.3 0.18 0  0.33 0.18 0  0.36 0.18 0  0.39 0.18 0  0.42 0.18 0  0.45 0.18 0  0.48 0.18 0  0.51 0.18 0  0.54 0.18 0  0.57 0.18 0  0.6 0.18 0  0.63 0.18 0  0.66 0.18 0  0.6899999999999999 0.18 0  0.72 0.18 0  0.75 0.18 0  0.78 0.18 0  0.8100000000000001 0.18 0  0.84 0.18 0  0.87 0.18 0  0.9 0.18 0  0.93 0.18 0  0.96 0.18 0  0.99 0.18 0  1.02 0.18 0  1.05 0.18 0  1.08 0.18 0  1.11 0.18 0  1.14 0.18 0  1.17 0.18 0  1.2 0.18 0  1.23 0.18 0  1.26 0.18 0  1.29 0.18 0  1.32 0.18 0  1.35 0.18 0  1.38 0.18 0  1.41 0.18 0  1.44 0.18 0  1.47 0.18 0  1.5 0.18 0  0 0.2 0  0.03 0.2 0  0.06 0.2 0  0.09 0.2 0  0.12 0.2 0  0.15 0.2 0  0.18 0.2 0  0.21 0.2 0  0.24 0.2 0  0.27 0.2 0  0.3 0.2 0  0.33 0.2 0  0.36 0.2 0  0.39 0.2 0  0.42 0.2 0  0.45 0.2 0  0.48 0.2 0  0.51 0.2 0  0.54 0.2 0  0.57 0.2 0  0.6 0.2 0  0.63 0.2 0  0.66 0.2 0  0.6899999999999999 0.2 0  0.72 0.2 0  0.75 0.2 0  0.78 0.2 0  0.8100000000000001 0.2 0  0.84 0.2 0  0.87 0.2 0  0.9 0.2 0  0.93 0.2 0  0.96 0.2 0  0.99 0.2 0  1.02 0.2 0  1.05 0.2 0  1.08 0.2 0  1.11 0.2 0  1.14 0.2 0  1.17 0.2 0  1.2 0.2 0  1.23 0.2 0  1.26 0.2 0  1.29 0.2 0  1.32 0.2 0  1.35 0.2 0  1.38 0.2 0  1.41 0.2 0  1.44 0.2 0  1.47 0.2 0  1.5 0.2 0  0 0.22 0  0.03 0.22 0  0.06 0.22 0  0.09 0.22 0  0.12 0.22 0  0.15 0.22 0  0.18 0.22 0  0.21 0.22 0  0.24 0.22 0  0.27 0.22 0  0.3 0.22 0  0.33 0.22 0  0.36 0.22 0  0.39 0.22 0  0.42 0.22 0  0.45 0.22 0  0.48 0.22 0  0.51 0.22 0  0.54 0.22 0  0.57 0.22 0  0.6 0.22 0  0.63 0.22 0  0.66 0.22 0  0.6899999999999999 0.22 0  0.72 0.22 0  0.75 0.22 0  0.78 0.22 0  0.8100000000000001 0.22 0  0.84 0.22 0  0.87 0.22 0  0.9 0.22 0  0.93 0.22 0  0.96 0.22 0  0.99 0.22 0  1.02 0.22 0  1.05 0.22 0  1.08 0.22 0  1.11 0.22 0  1.14 0.22 0  1.17 0.22 0  1.2 0.22 0  1.23 0.22 0  1.26 0.22 0  1.29 0.22 0  1.32 0.22 0  1.35 0.22 0  1.38 0.22 0  1.41 0.22 0  1.44 0.22 0  1.47 0.22 0  1.5 0.22 0  0 0.24 0  0.03 0.24 0  0.06 0.24 0  0.09 0.24 0  0.12 0.24 0  0.15 0.24 0  0.18 0.24 0  0.21 0.24 0  0.24 0.24 0  0.27 0.24 0  0.3 0.24 0  0.33 0.24 0  0.36 0.24 0  0.39 0.24 0  0.42 0.24 0  0.45 0.24 0  0.48 0.24 0  0.51 0.24 0  0.54 0.24 0  0.57 0.24 0  0.6 0.24 0  0.63 0.24 0  0.66 0.24 0  0.6899999999999999 0.24 0  0.72 0.24 0  0.75 0.24 0  0.78 0.24 0  0.8100000000000001 0.24 0  0.84 0.24 0  0.87 0.24 0  0.9 0.24 0  0.93 0.24 0  0.96 0.24 0  0.99 0.24 0  1.02 0.24 0  1.05 0.24 0  1.08 0.24 0  1.11 0.24 0  1.14 0.24 0  1.17 0.24 0  1.2 0.24 0  1.23 0.24 0  1.26 0.24 0  1.29 0.24 0  1.32 0.24 0  1.35 0.24 0  1.38 0.24 0  1.41 0.24 0  1.44 0.24 0  1.47 0.24 0  1.5 0.24 0  0 0.26 0  0.03 0.26 0  0.06 0.26 0  0.09 0.26 0  0.12 0.26 0  0.15 0.26 0  0.18 0.26 0  0.21 0.26 0  0.24 0.26 0  0.27 0.26 0  0.3 0.26 0  0.33 0.26 0  0.36 0.26 0  0.39 0.26 0  0.42 0.26 0  0.45 0.26 0  0.48 0.26 0  0.51 0.26 0  0.54 0.26 0  0.57 0.26 0  0.6 0.26 0  0.63 0.26 0  0.66 0.26 0  0.6899999999999999 0.26 0  0.72 0.26 0  0.75 0.26 0  0.78 0.26 0  0.8100000000000001 0.26 0  0.84 0.26 0  0.87 0.26 0  0.9 0.26 0  0.93 0.26 0  0.96 0.26 0  0.99 0.26 0  1.02 0.26 0  1.05 0.26 0  1.08 0.26 0  1.11 0.26 0  1.14 0.26 0  1.17 0.26 0  1.2 0.26 0  1.23 0.26 0  1.26 0.26 0  1.29 0.26 0  1.32 0.26 0  1.35 0.26 0  1.38 0.26 0  1.41 0.26 0  1.44 0.26 0  1.47 0.26 0  1.5 0.26 0  0 0.28 0  0.03 0.28 0  0.06 0.28 0  0.09 0.28 0  0.12 0.28 0  0.15 0.28 0  0.18 0.28 0  0.21 0.28 0  0.24 0.28 0  0.27 0.28 0  0.3 0.28 0  0.33 0.28 0  0.36 0.28 0  0.39 0.28 0  0.42 0.28 0  0.45 0.28 0  0.48 0.28 0  0.51 0.28 0  0.54 0.28 0  0.57 0.28 0  0.6 0.28 0  0.63 0.28 0  0.66 0.28 0  0.6899999999999999 0.28 0  0.72 0.28 0  0.75 0.28 0  0.78 0.28 0  0.8100000000000001 0.28 0  0.84 0.28 0  0.87 0.28 0  0.9 0.28 0  0.93 0.28 0  0.96 0.28 0  0.99 0.28 0  1.02 0.28
[...]
<PointData  Scalars="sensitivity"> 
<DataArray  type="Float64"  Name="sensitivity"  format="ascii">-9.2240228423570132e-08  -3.4863584798147640e-06  -2.4846553728209490e-05  -7.7940158542760411e-05  -1.5716984841759432e-04  -2.4407335440345990e-04  -3.2198134577888870e-04  -3.8283615773154804e-04  -4.2593067980059140e-04  -4.5424529374809609e-04  -4.7167369130503360e-04  -4.8167811545169668e-04  -4.8689054705342510e-04  -4.8914951846980737e-04  -4.8967394791125235e-04  -4.8924313175835931e-04  -4.8834090549819170e-04  -4.8725925898419209e-04  -4.8616871846352461e-04  -4.8516462162064602e-04  -4.8429693091249065e-04  -4.8358917186256355e-04  -4.8305031961781112e-04  -4.8268215513032808e-04  -4.8248370972556117e-04  -4.8245380581192899e-04  -4.8259228390382238e-04  -4.8290020559347738e-04  -4.8337907994491894e-04  -4.8402892822487512e-04  -4.8484473179067223e-04  -4.8581044692596871e-04  -4.8688925000011382e-04  -4.8800790796108717e-04  -4.8903204556358917e-04  -4.8972750954938567e-04  -4.8970105201795032e-04  -4.8831163628636719e-04  -4.8454363784157593e-04  -4.7683959415897626e-04  -4.6291430448841103e-04  -4.3963585061162694e-04  -4.0318808056358658e-04  -3.4994513774643427e-04  -2.7861388688921749e-04  -1.9373655635578240e-04  -1.0865931004539262e-04  -4.2725540661526429e-05  -8.8594532696126338e-06  -4.8524309925360186e-07  -9.0436254497380591e-10  -1.9810970183412124e-06  -4.4971472450849534e-05  -2.5949683359987620e-04  -7.7965653034313528e-04  -1.5776733678694137e-03  -2.4831881111158824e-03  -3.3199765470790805e-03  -3.9903384990726794e-03  -4.4750699360425108e-03  -4.7993014832424371e-03  -5.0022644732107876e-03  -5.1209799906642203e-03  -5.1845143850415840e-03  -5.2135946263135360e-03  -5.2221616328325671e-03  -5.2192257710226711e-03  -5.2104322511515476e-03  -5.1992174857780557e-03  -5.1876077255630050e-03  -5.1767498739106622e-03  -5.1672560311416885e-03  -5.1594235591728927e-03  -5.1533738285555568e-03  -5.1491384843612049e-03  -5.1467119259556325e-03  -5.1460817558861274e-03  -5.1472442020134776e-03  -5.1502081268386532e-03  -5.1549885659968302e-03  -5.1615882545032500e-03  -5.1699628074582142e-03  -5.1799615737731265e-03  -5.1912309967183847e-03  -5.2030597246361110e-03  -5.2141336880856259e-03  -5.2221540306250976e-03  -5.2232515186625469e-03  -5.2111124804932627e-03  -5.1757300232127433e-03  -5.1017525281711216e-03  -4.9666241057388554e-03  -4.7392815823245130e-03  -4.3813691548847122e-03  -3.8548725926163233e-03  -3.1413682752068060e-03  -2.2749077182177471e-03  -1.3733583941747634e-03  -6.2357476931508993e-04  -1.7760500659980309e-04  -2.1121103964347232e-05  -2.9317665926948569e-07  -1.2679022342268228e-05  -1.9265422121927470e-04  -8.5319826543830176e-04  -2.2341237509192987e-03  -4.2403223086205201e-03  -6.4777979341153003e-03  -8.5401819700603177e-03  -1.0198068650797514e-02  -1.1403606039351723e-02  -1.2214833854532632e-02  -1.2725501989014584e-02  -1.3025678955690855e-02  -1.3187032731297475e-02  -1.3261208471024438e-02  -1.3283230683897076e-02  -1.3275883234536504e-02  -1.3253512642862866e-02  -1.3224886299018541e-02  -1.3195189741950317e-02  -1.3167365330942390e-02  -1.3142986488407789e-02  -1.3122818613049094e-02  -1.3107173935681695e-02  -1.3096132780240305e-02  -1.3089678593935455e-02  -1.3087776737210373e-02  -1.3090415056026809e-02  -1.3097615711038355e-02  -1.3109421039047426e-02  -1.3125850070314249e-02  -1.3146815508117487e-02  -1.3171982177877411e-02  -1.3200535568860923e-02  -1.3230811108975867e-02  -1.3259708915874184e-02  -1.3281783121378548e-02  -1.3287850630012067e-02  -1.3262922625698378e-02  -1.3183260473174351e-02  -1.3012493125190315e-02  -1.2697231441628059e-02  -1.2163858277779509e-02  -1.1320824643962465e-02  -1.0074807327799969e-02  -8.3722958935669462e-03  -6.2724453235034989e-03  -4.0212205529696508e-03  -2.0392197647293945e-03  -7.1842785281104736e-04  -1.3041327114146384e-04  -4.4394366303542583e-06  -4.5316886764415469e-05  -5.6072877355737324e-04  -2.0017058910809685e-03  -4.4645541398581979e-03  -7.6576560569189848e-03  -1.1013729763509329e-02  -1.4015566418032888e-02  -1.6392658271015274e-02  -1.8107809109255642e-02  -1.9256136264246243e-02  -1.9974971775308957e-02  -2.0393529253645765e-02  -2.0614194874193324e-02  -2.0710805764701107e-02  -2.0733536373399253e-02  -2.0715079635745308e-02  -2.0676030579008239e-02  -2.0628956551734603e-02  -2.0581258704161685e-02  -2.0537099969285651e-02  -2.0498669424567673e-02  -2.0466995984191431e-02  -2.0442464209463829e-02  -2.0425136304686006e-02  -2.0414948773931539e-02  -2.0411827338583557e-02  -2.0415746459101339e-02  -2.0426747431372235e-02  -2.0444919326968031e-02  -2.0470338173194883e-02  -2.0502950003027921e-02  -2.0542370894697945e-02  -2.0587559641502926e-02  -2.0636293497126031e-02  -2.0684341436010226e-02  -2.0724180215104814e-02  -2.0743038061168752e-02  -2.0719994412559749e-02  -2.0621860220023956e-02  -2.0397740224417791e-02  -1.9972808597179887e-02  -1.9243406053823554e-02  -1.8078889241053973e-02  -1.6340412304373393e-02  -1.3931902216056263e-02  -1.0890967474854749e-02  -7.4904685467984643e-03  -4.2620753257015783e-03  -1.8008752943822037e-03  -4.2999638589689526e-04  -2.2357371187312542e-05  -1.1807013731152599e-04  -1.3451173306154262e-03  -4.1338049709018672e-03  -7.9347088423400557e-03  -1.2109452930676020e-02  -1.6082181634275237e-02  -1.9445414630149739e-02  -2.2027187501547994e-02  -2.3853264630188234e-02  -2.5055525765310824e-02  -2.5793211786793405e-02  -2.6209356543718452e-02  -2.6415425294877865e-02  -2.6491261540383081e-02  -2.6490928017854212e-02  -2.6449528512394561e-02  -2.6389057431320022e-02  -2.6322812271742393e-02  -2.6258500818025474e-02  -2.6200340031221143e-02  -2.6150435539673451e-02  -2.6109670569362635e-02  -2.6078269513953773e-02  -2.6056149375557690e-02  -2.6043134004918461e-02  -2.6039079089234828e-02  -2.6043936992899006e-02  -2.6057776982988202e-02  -2.6080765708280482e-02  -2.6113103063636671e-02  -2.6154897907409786e-02  -2.6205954523881938e-02  -2.6265421879863547e-02  -2.6331230747281293e-02  -2.6399205456500176e-02  -2.6461685033789924e-02  -2.6505424592430413e-02  -2.6508487025750184e-02  -2.6435823887890279e-02  -2.6233404773423154e-02  -2.5821325331972608e-02  -2.5087791459582003e-02  -2.3888761324603706e-02  -2.2062186644762331e-02  -1.9470588813681852e-02  -1.6075442904976939e-02  -1.2032293993549603e-02  -7.7439501565671857e-03  -3.8297776665043195e-03  -1.0852130397562966e-03  -6.8794927409162275e-05  -2.6520684171571057e-04  -2.9268953768069343e-03  -8.0760156441572386e-03  -1.3503174023633921e-02  -1.8220648495065245e-02  -2.2078131215832353e-02  -2.5079823536004454e-02  -2.7275370893911893e-02  -2.8775203440017872e-02  -2.9727866690078972e-02  -3.0283159165851694e-02  -3.0568428813135078e-02  -3.0680796775210056e-02  -3.0689076012334365e-02  -3.0639463917117204e-02  -3.0561644444500744e-02  -3.0473922051335412e-02  -3.0387079829075968e-02  -3.0307098213175503e-02  -3.0236994198865143e-02  -3.0178030998123554e-02  -3.0130496783928130e-02  -3.0094196896020293e-02  -3.0068759175731319e-02  -3.0053818818804610e-02  -3.0049125473036058e-02  -3.0054598651231598e-02  -3.0070345460713403e-02  -3.0096645143055954e-02  -3.0133896245938454e-02  -3.0182512798214992e-02  -3.0242743910797627e-02  -3.0314374771404338e-02  -3.0396243638200458e-02  -3.0485476541953570e-02  -3.0576297094156126e-02  -3.0658214578858440e-02  -3.0713341123822221e-02  -3.0712574085328542e-02  -3.0610492066275433e-02  -3.0339218909205639e-02  -2.9802549498570412e-02  -2.8873363233707729e-02  -2.7399936443899729e-02  -2.5226563188601600e-02  -2.2221135812325557e-02  -1.8297740786073970e-02  -1.3372088626864453e-02  -7.6159246304230632e-03  -2.4056505744253242e-03  -1.6550186006378384e-04  -5.8369733512601883e-04  -6.2458069105192603e-03  -1.5504584759229719e-02  -2.2506204842450937e-02  -2.6752400882917537e-02  -2.9406766045856930e-02  -3.1186347057541950e-02  -3.2382037512723005e-02  -3.3138717358823552e-02  -3.3566787720723752e-02  -3.3762625577006267e-02  -3.3805723063932723e-02  -3.3756321015356743e-02  -3.3656845233976863e-02  -3.3535380455096429e-02  -3.3409469666007052e-02  -3.3289384559726617e-02  -3.3180626461906532e-02  -3.3085709468938566e-02  -3.3005374337453507e-02  -3.2939387430635722e-02  -3.2887052389585530e-02  -3.2847529824794282e-02  -3.2820032100467265e-02  -3.2803938542441236e-02  -3.2798860567343019e-02  -3.2804674893931837e-02  -3.2821534690391091e-02  -3.2849861934802459e-02  -3.2890318278457772e-02  -3.2943745226818928e-02  -3.3011056364455817e-02  -3.3093053380119711e-02  -3.3190122364035381e-02  -3.3301745864379784e-02  -3.3425738891535432e-02  -3.3557085472156807e-02  -3.3686225773549558e-02  -3.3796646567747189e-02  -3.3861715503300541e-02  -3.3840964616888868e-02  -3.3676604369332119e-02  -3.3291669520671370e-02  -3.2591457911493600e-02  -3.1462157573741184e-02  -2.9742124855990457e-02  -2.7085074108001417e-02  -2.2601346716214773e-02  -1.4995416104823781e-02  -5.2297000108271737e-03  -3.6069904750440419e-04  -1.5086710881773834e-03  -1.4426464260343592e-02  -2.9770630809934383e-02  -3.6782097898171412e-02  -3.8387366771278679e-02  -3.8280600248199619e-02  -3.7860387734852098e-02  -3.7463797163064659e-02  -3.7118614663619313e-02  -3.6803573091298399e-02  -3.6506652689233719e-02  -3.6226832935252154e-02  -3.5967628151122928e-02  -3.5732749034607374e-02  -3.5524397910550523e-02  -3.5343047765600634e-02  -3.5187810937127285e-02  -3.5056934310555850e-02  -3.4948233109769258e-02  -3.4859412472647074e-02  -3.4788282698473193e-02  -3.4732891832662330e-02  -3.4691600629709884e-02  -3.4663120653248593e-02  -3.4646530909532139e-02  -3.4641283629179301e-02  -3.4647206000205308e-02  -3.4664501695859454e-02  -3.4693753645549733e-02  -3.4735927332693359e-02  -3.4792371639850585e-02  -3.4864811586254207e-02  -3.4955323973765745e-02  -3.5066282918171446e-02  -3.5200257970373294e-02  -3.5359844747753763e-02  -3.5547411283913727e-02  -3.5764763353494974e-02  -3.6012790068540738e-02  -3.6291289760918465e-02  -3.6599444720888018e-02  -3.6937838209945444e-02  -3.7313087339540266e-02  -3.7744637261178125e-02  -3.8260843743462801e-02  -3.8839008485705248e-02  -3.9099852772886294e-02  -3.7455770576087739e-02  -2.9613646560029783e-02  -1.2027818354538148e-02  -7.8783079099242141e-04  -7.7527215939665016e-03  -3.6851687812180282e-02  -5.6803056024167305e-02  -5.8057730163542459e-02  -5.3339122681272784e-02  -4.8540188892506511e-02  -4.4945337185159785e-02  -4.2461920948797818e-02  -4.0756425442220467e-02  -3.9559148070053771e-02  -3.8692898837340728e-02  -3.8047757339251316e-02  -3.7555695424436618e-02  -3.7173581296626824e-02  -3.6873068377637146e-02  -3.6634784149892845e-02  -3.6444995240459015e-02  -3.6293661876054706e-02  -3.6173271831549350e-02  -3.6078118203530234e-02  -3.6003836184746910e-02  -3.5947096117855758e-02  -3.5905394906057736e-02  -3.5876912576570448e-02  -3.5860414686516753e-02  -3.5855189297768750e-02  -3.5861012127769779e-02  -3.5878136704727379e-02  -3.5907308799238383e-02  -3.5949806662553901e-02  -3.6007511189743900e-02  -3.6083013661899713e-02  -3.6179774140649892e-02  -3.6302352483108265e-02  -3.6456749161450579e-02  -3.6650919779753217e-02  -3.6895575066429806e-02  -3.7205464834929987e-02  -3.7601502609466091e-02  -3.8114376234869796e-02  -3.8790784681856622e-02  -3.9704249444797966e-02  -4.0973250689591359e-02  -4.2788723577270767e-02  -4.5442144366811675e-02  -4.9302153341233432e-02  -5.4496433511648970e-02  -5.9719887032177621e-02  -5.8341669823107262e-02  -3.5168288398105700e-02  -3.3210717123063013e-03  -4.8019893324606829e-02  -9.7586057740548959e-02  -1.0179047507163273e-01  -8.6313742034472563e-02  -7.0814357873146230e-02  -5.9503809132226700e-02  -5.2011404730810638e-02  -4.7154026295421425e-02  -4.3977200581620683e-02  -4.1858062359636815e-02  -4.0411338605892640e-02  -3.9400825125309666e-02  -3.8679916764384682e-02  -3.8155813153687261e-02  -3.7768488322845309e-02  -3.7478274945146266e-02  -3.7258422420798007e-02  -3.7090550450178901e-02  -3.6961818197546015e-02  -3.6863130036029333e-02  -3.6787979987485460e-02  -3.6731697418715119e-02  -3.6690950004037132e-02  -3.6663415550283136e-02  -3.6647568080597118e-02  -3.6642544671507640e-02  -3.6648073225899823e-02  -3.6664450847758906e-02  -3.6692569836583866e-02  -3.6733995061490929e-02  -3.6791103966352205e-02  -3.6867310245819275e-02  -3.6967406449835712e-02  -3.7098082737384755e-02  -3.7268714186866683e-02  -3.7492566897570953e-02  -3.7788670364571106e-02  -3.8184770321566523e-02  -3.8722069921846805e-02  -3.9462990522633669e-02  -4.0504125952556577e-02  -4.1998261083295546e-02  -4.4191946450591962e-02  -4.7488637516688789e-02  -5.2544931915921467e-02  -6.0376214897999624e-02  -7.2280184472432646e-02  -8.8893336414602356e-02  -1.0573653973913000e-01  -1.0524889852151847e-01  -2.9389240937941364e-02  -1.2681273946463639e-01  -2.0196825596048140e-01  -1.5953019196048546e-01  -1.1793617892826516e-01  -8.8638006251850615e-02  -6.9960873464249743e-02  -5.8402773918226888e-02  -5.1201375085565534e-02  -4.6629044547342277e-02  -4.3660606419017728e-02  -4.1690952531009899e-02  -4.0357619297614611e-02  -3.9438466258338030e-02  -3.8794231706540304e-02  -3.8335781195761184e-02  -3.8005016806288990e-02  -3.7763461949793138e-02  -3.7585272639619638e-02  -3.7452871952586723e-02  -3.7354177446136838e-02  -3.7280816690405061e-02  -3.7226967136574633e-02  -3.7188597320071390e-02  -3.7162970875221461e-02  -3.7148326837480740e-02  -3.7143682616186405e-02  -3.7148727644312783e-02  -3.7163790846338494e-02  -3.7189876858644812e-02  -3.7228776736139939e-02  -3.7283270790279543e-02  -3.7357456594442430e-02  -3.7457257270396414e-02  -3.7591198824099406e-02  -3.7771598536870711e-02  -3.8016392995461550e-02  -3.8351978807000753e-02  -3.8817686756536268e-02  -3.9472949388461839e-02  -4.0409018974319338e-02  -4.1768602219553884e-02  -4.3779625957022165e-02  -4.6814680971416382e-02  -5.1497451631637998e-02  -5.8888680320833393e-02  -7.0788189380738512e-02  -9.0082563993682460e-02  -1.2062505199864544e-01  -1.6392215404458108e-01  -2.1398433845223602e-01  -1.0293796120634850e-01  -1.9690149174726185e-01  -3.0225802058933710e-01  -2.1228673876447282e-01  -1.4581702117660869e-01  -1.0362703015246455e-01  -7.8396511951284609e-02  -6.3361780536179454e-02  -5.4224705432940765e-02  -4.8532552682533127e-02  -4.4898433464300273e-02  -4.2527862267999511e-02  -4.0952838338764307e-02  -3.9889611102812327e-02  -3.9161668636641493e-02  -3.8656809212706797e-02  -3.8302450738429319e-02  -3.8050965312595435e-02  -3.7870727805790393e-02  -3.7740529049678569e-02  -3.7646027877467368e-02  -3.7577468361145311e-02  -3.7528197591008158e-02  -3.7493698645665582e-02  -3.7470960822139680e-02  -3.7458075462972959e-02  -3.7453987847314109e-02  -3.7458363459052207e-02  -3.7471546540385307e-02  -3.7494604162920567e-02  -3.7529463074347409e-02  -3.7579161984377121e-02  -3.7648261726125093e-02  -3.7743483890052831e-02  -3.7874691176327760e-02  -3.8056389851658476e-02  -3.8310043635730144e-02  -3.8667670333409884e-02  -3.9177506827385584e-02  -3.9913090421337290e-02  -4.0988147220344197e-02  -4.2581700355109268e-02  -4.4981740974945693e-02  -4.8663868560430333e-02  -5.4436736493996628e-02  -6.3712978574420209e-02  -7.9004447709311962e-02  -1.0469214707462512e-01  -1.4781304034407863e-01  -2.1571474842299265e-01  -3.1053947843280810e-01  -1.8017334753794917e-01  -2.3325624533322117e-01  -3.6156054242304564e-01  -2.4425904626438957e-01  -1.6285724946323021e-01  -1.1268074798851660e-01  -8.3392796812039691e-02  -6.6211142218026403e-02  -5.5895023210089427e-02  -4.9531798629400582e-02  -4.5507671302026848e-02  -4.2909766364264489e-02  -4.1204298986012258e-02  -4.0069298659218933e-02  -3.9305184465200864e-02  -3.8785497865444329e-02  -3.8428736227573895e-02  -3.8181676347948036e-02  -3.8009206434656377e-02  -3.7887977105678150e-02  -3.7802365064348691e-02  -3.7741873346916796e-02  -3.7699442345402054e-02  -3.7670348161560376e-02  -3.7651485946468874e-02  -3.7640910722771460e-02  -3.7637555954177192e-02  -3.7641081862815687e-02  -3.7651827942118278e-02  -3.7670861732339661e-02  -3.7700132058284590e-02  -3.7742752584272191e-02  -3.7803464066870518e-02  -3.7889355554826351e-02  -3.8010972762851022e-02  -3.8184017032073692e-02  -3.8431959979705811e-02  -3.8790102329772071e-02  -3.9311957880335355e-02  -4.0079477649477106e-02  -4.1219820012742478e-02  -4.2933690263720001e-02  -4.5544891477303590e-02  -4.9590392417736960e-02  -5.5988778906413794e-02  -6.6363071127796394e-02  -8.3647865392057097e-02  -1.1310785585580825e-01  -1.6362407136807414e-01  -2.4557908713268828e-01  -3.6438746979535969e-01  -2.2725261463062607e-01  -2.2737719469550374e-01  -3.6532220949715077e-01  -2.4692158761492281e-01  -1.6476584633934827e-01  -1.1385972729544437e-01  -8.4058064476549774e-02  -6.6536406941473558e-02  -5.6016621789301439e-02  -4.9538000603336345e-02  -4.5455452977269328e-02  -4.2834651524400177e-02  -4.1127891092110666e-02  -4.0004167736131767e-02  -3.9258001784160113e-02  -3.8759128371038308e-02  -3.8423639902672196e-02  -3.8196854092078535e-02  -3.8042832599866294e-02  -3.7937813068903772e-02  -3.7866019417701263e-02  -3.7816955416976439e-02  -3.7783642636260183e-02  -3.7761469713807568e-02  -3.7747443509482538e-02  -3.7739709457820958e-02  -3.7737257724826098e-02  -3.7739764737434546e-02  -3.7747543118043410e-02  -3.7761591558095393e-02  -3.7783753120141789e-02  -3.7817008948134785e-02  -3.7865957802024786e-02  -3.7937564737000606e-02  -3.8042311407290273e-02  -3.8195956987678588e-02  -3.8422241836867786e-02  -3.8757071016341689e-02  -3.9255068970957249e-02  -4.0000033444228200e-02  -4.1122011538598451e-02  -4.2826032560685998e-02  -4.5442183688965548e-02  -4.9516156408110780e-02  -5.5977801405400637e-02  -6.6463266974565047e-02  -8.3908151006284959e-02  -1.1355305774150584e-01  -1.6409624069897596e-01  -2.4560015227768495e-01  -3.6230250837734901e-01  -2.3331502146562261e-01  -1.8050574971572533e-01  -3.1315903148938101e-01  -2.1964972235039762e-01  -1.5122116927160689e-01  -1.0699015414456660e-01  -8.0302442636335278e-02  -6.4300813640600071e-02  -5.4579746768724999e-02  -4.8557033903490539e-02  -4.4756582783167700e-02  -4.2322780025938304e-02  -4.0747384192827328e-02  -3.9720265579793024e-02  -3.9047630988578580e-02  -3.8606111774896437e-02  -3.8316084192958823e-02  -3.8125668713152518e-02  -3.8000852861955287e-02  -3.7919255751387632e-02  -3.7866125696929813e-02  -3.7831742089041637e-02  -3.7809717785511711e-02  -3.7795887924511593e-02  -3.7787585980933618e-02  -3.7783179929100907e-02  -3.7781788077682892e-02  -3.7783125670917954e-02  -3.7787455974783203e-02  -3.7795637508931196e-02  -3.7809275550784838e-02  -3.7831003926790306e-02  -3.7864945607265187e-02  -3.7917431914732659e-02  -3.7998106431190039e-02  -3.8121610960951319e-02  -3.8310164406147609e-02  -3.8597532435079102e-02  -3.9035205672054256e-02  -3.9702173572162623e-02  -4.0720734747032410e-02  -4.2282794988263477e-02  -4.4695064743682379e-02  -4.8459178811049955e-02  -5.4417525732313336e-02  -6.4020635900087733e-02  -7.9788968668722648e-02  -1.0603535937000065e-01  -1.4932369827727532e-01  -2.1624170754276681e-01  -3.0470669732653821e-01  -1.9715558766746633e-01  -1.0356803684526152e-01  -2.1825868544697533e-01  -1.7010572569030061e-01  -1.2593172488193946e-01  -9.3687298317487192e-02  -7.2856893676880391e-02  -5.9855186166455077e-02  -5.1768239962763397e-02  -4.6695029065532231e-02  -4.3478599071775786e-02  -4.1421667004772400e-02  -4.0099407200856592e-02  -3.9248049194035621e-02  -3.8700872977340969e-02  -3.8350974577440293e-02  -3.8129105420327526e-02  -3.7990128600421537e-02  -3.7904533599386676e-02  -3.7853017058724174e-02  -3.7822972663610309e-02  -3.7806197220036815e-02  -3.7797384820835424e-02  -3.7793138392327896e-02  -3.7791324864241145e-02  -3.7790661917023093e-02  -3.7790464830314265e-02  -3.7790509685052619e-02  -3.7790989275872121e-02  -3.7792554144774886e-02  -3.7796445907006135e-02  -3.7804746008768840e-02  -