<?xml version="1.0"?>
<VTKFile type="UnstructuredGrid"  version="0.1"  >
<UnstructuredGrid>
<Piece  NumberOfPoints="2601" NumberOfCells="5000">
<Points>
<DataArray  type="Float64"  NumberOfComponents="3"  format="ascii">0 0 0  0.03 0 0  0.06 0 0  0.09 0 0  0.12 0 0  0.15 0 0  0.18 0 0  0.21 0 0  0.24 0 0  0.27 0 0  0.3 0 0  0.33 0 0  0.36 0 0  0.39 0 0  0.42 0 0  0.45 0 0  0.48 0 0  0.51 0 0  0.54 0 0  0.57 0 0  0.6 0 0  0.63 0 0  0.66 0 0  0.6899999999999999 0 0  0.72 0 0  0.75 0 0  0.78 0 0  0.8100000000000001 0 0  0.84 0 0  0.87 0 0  0.9 0 0  0.93 0 0  0.96 0 0  0.99 0 0  1.02 0 0  1.05 0 0  1.08 0 0  1.11 0 0  1.14 0 0  1.17 0 0  1.2 0 0  1.23 0 0  1.26 0 0  1.29 0 0  1.32 0 0  1.35 0 0  1.38 0 0  1.41 0 0  1.44 0 0  1.47 0 0  1.5 0 0  0 0.02 0  0.03 0.02 0  0.06 0.02 0  0.09 0.02 0  0.12 0.02 0  0.15 0.02 0  0.18 0.02 0  0.21 0.02 0  0.24 0.02 0  0.27 0.02 0  0.3 0.02 0  0.33 0.02 0  0.36 0.02 0  0.39 0.02 0  0.42 0.02 0  0.45 0.02 0  0.48 0.02 0  0.51 0.02 0  0.54 0.02 0  0.57 0.02 0  0.6 0.02 0  0.63 0.02 0  0.66 0.02 0  0.6899999999999999 0.02 0  0.72 0.02 0  0.75 0.02 0  0.78 0.02 0  0.8100000000000001 0.02 0  0.84 0.02 0  0.87 0.02 0  0.9 0.02 0  0.93 0.02 0  0.96 0.02 0  0.99 0.02 0  1.02 0.02 0  1.05 0.02 0  1.08 0.02 0  1.11 0.02 0  1.14 0.02 0  1.17 0.02 0  1.2 0.02 0  1.23 0.02 0  1.26 0.02 0  1.29 0.02 0  1.32 0.02 0  1.35 0.02 0  1.38 0.02 0  1.41 0.02 0  1.44 0.02 0  1.47 0.02 0  1.5 0.02 0  0 0.04 0  0.03 0.04 0  0.06 0.04 0  0.09 0.04 0  0.12 0.04 0  0.15 0.04 0  0.18 0.04 0  0.21 0.04 0  0.24 0.04 0  0.27 0.04 0  0.3 0.04 0  0.33 0.04 0  0.36 0.04 0  0.39 0.04 0  0.42 0.04 0  0.45 0.04 0  0.48 0.04 0  0.51 0.04 0  0.54 0.04 0  0.57 0.04 0  0.6 0.04 0  0.63 0.04 0  0.66 0.04 0  0.6899999999999999 0.04 0  0.72 0.04 0  0.75 0.04 0  0.78 0.04 0  0.8100000000000001 0.04 0  0.84 0.04 0  0.87 0.04 0  0.9 0.04 0  0.93 0.04 0  0.96 0.04 0  0.99 0.04 0  1.02 0.04 0  1.05 0.04 0  1.08 0.04 0  1.11 0.04 0  1.14 0.04 0  1.17 0.04 0  1.2 0.04 0  1.23 0.04 0  1.26 0.04 0  1.29 0.04 0  1.32 0.04 0  1.35 0.04 0  1.38 0.04 0  1.41 0.04 0  1.44 0.04 0  1.47 0.04 0  1.5 0.04 0  0 0.06 0  0.03 0.06 0  0.06 0.06 0  0.09 0.06 0  0.12 0.06 0  0.15 0.06 0  0.18 0.06 0  0.21 0.06 0  0.24 0.06 0  0.27 0.06 0  0.3 0.06 0  0.33 0.06 0  0.36 0.06 0  0.39 0.06 0  0.42 0.06 0  0.45 0.06 0  0.48 0.06 0  0.51 0.06 0  0.54 0.06 0  0.57 0.06 0  0.6 0.06 0  0.63 0.06 0  0.66 0.06 0  0.6899999999999999 0.06 0  0.72 0.06 0  0.75 0.06 0  0.78 0.06 0  0.8100000000000001 0.06 0  0.84 0.06 0  0.87 0.06 0  0.9 0.06 0  0.93 0.06 0  0.96 0.06 0  0.99 0.06 0  1.02 0.06 0  1.05 0.06 0  1.08 0.06 0  1.11 0.06 0  1.14 0.06 0  1.17 0.06 0  1.2 0.06 0  1.23 0.06 0  1.26 0.06 0  1.29 0.06 0  1.32 0.06 0  1.35 0.06 0  1.38 0.06 0  1.41 0.06 0  1.44 0.06 0  1.47 0.06 0  1.5 0.06 0  0 0.08 0  0.03 0.08 0  0.06 0.08 0  0.09 0.08 0  0.12 0.08 0  0.15 0.08 0  0.18 0.08 0  0.21 0.08 0  0.24 0.08 0  0.27 0.08 0  0.3 0.08 0  0.33 0.08 0  0.36 0.08 0  0.39 0.08 0  0.42 0.08 0  0.45 0.08 0  0.48 0.08 0  0.51 0.08 0  0.54 0.08 0  0.57 0.08 0  0.6 0.08 0  0.63 0.08 0  0.66 0.08 0  0.6899999999999999 0.08 0  0.72 0.08 0  0.75 0.08 0  0.78 0.08 0  0.8100000000000001 0.08 0  0.84 0.08 0  0.87 0.08 0  0.9 0.08 0  0.93 0.08 0  0.96 0.08 0  0.99 0.08 0  1.02 0.08 0  1.05 0.08 0  1.08 0.08 0  1.11 0.08 0  1.14 0.08 0  1.17 0.08 0  1.2 0.08 0  1.23 0.08 0  1.26 0.08 0  1.29 0.08 0  1.32 0.08 0  1.35 0.08 0  1.38 0.08 0  1.41 0.08 0  1.44 0.08 0  1.47 0.08 0  1.5 0.08 0  0 0.1 0  0.03 0.1 0  0.06 0.1 0  0.09 0.1 0  0.12 0.1 0  0.15 0.1 0  0.18 0.1 0  0.21 0.1 0  0.24 0.1 0  0.27 0.1 0  0.3 0.1 0  0.33 0.1 0  0.36 0.1 0  0.39 0.1 0  0.42 0.1 0  0.45 0.1 0  0.48 0.1 0  0.51 0.1 0  0.54 0.1 0  0.57 0.1 0  0.6 0.1 0  0.63 0.1 0  0.66 0.1 0  0.6899999999999999 0.1 0  0.72 0.1 0  0.75 0.1 0  0.78 0.1 0  0.8100000000000001 0.1 0  0.84 0.1 0  0.87 0.1 0  0.9 0.1 0  0.93 0.1 0  0.96 0.1 0  0.99 0.1 0  1.02 0.1 0  1.05 0.1 0  1.08 0.1 0  1.11 0.1 0  1.14 0.1 0  1.17 0.1 0  1.2 0.1 0  1.23 0.1 0  1.26 0.1 0  1.29 0.1 0  1.32 0.1 0  1.35 0.1 0  1.38 0.1 0  1.41 0.1 0  1.44 0.1 0  1.47 0.1 0  1.5 0.1 0  0 0.12 0  0.03 0.12 0  0.06 0.12 0  0.09 0.12 0  0.12 0.12 0  0.15 0.12 0  0.18 0.12 0  0.21 0.12 0  0.24 0.12 0  0.27 0.12 0  0.3 0.12 0  0.33 0.12 0  0.36 0.12 0  0.39 0.12 0  0.42 0.12 0  0.45 0.12 0  0.48 0.12 0  0.51 0.12 0  0.54 0.12 0  0.57 0.12 0  0.6 0.12 0  0.63 0.12 0  0.66 0.12 0  0.6899999999999999 0.12 0  0.72 0.12 0  0.75 0.12 0  0.78 0.12 0  0.8100000000000001 0.12 0  0.84 0.12 0  0.87 0.12 0  0.9 0.12 0  0.93 0.12 0  0.96 0.12 0  0.99 0.12 0  1.02 0.12 0  1.05 0.12 0  1.08 0.12 0  1.11 0.12 0  1.14 0.12 0  1.17 0.12 0  1.2 0.12 0  1.23 0.12 0  1.26 0.12 0  1.29 0.12 0  1.32 0.12 0  1.35 0.12 0  1.38 0.12 0  1.41 0.12 0  1.44 0.12 0  1.47 0.12 0  1.5 0.12 0  0 0.14 0  0.03 0.14 0  0.06 0.14 0  0.09 0.14 0  0.12 0.14 0  0.15 0.14 0  0.18 0.14 0  0.21 0.14 0  0.24 0.14 0  0.27 0.14 0  0.3 0.14 0  0.33 0.14 0  0.36 0.14 0  0.39 0.14 0  0.42 0.14 0  0.45 0.14 0  0.48 0.14 0  0.51 0.14 0  0.54 0.14 0  0.57 0.14 0  0.6 0.14 0  0.63 0.14 0  0.66 0.14 0  0.6899999999999999 0.14 0  0.72 0.14 0  0.75 0.14 0  0.78 0.14 0  0.8100000000000001 0.14 0  0.84 0.14 0  0.87 0.14 0  0.9 0.14 0  0.93 0.14 0  0.96 0.14 0  0.99 0.14 0  1.02 0.14 0  1.05 0.14 0  1.08 0.14 0  1.11 0.14 0  1.14 0.14 0  1.17 0.14 0  1.2 0.14 0  1.23 0.14 0  1.26 0.14 0  1.29 0.14 0  1.32 0.14 0  1.35 0.14 0  1.38 0.14 0  1.41 0.14 0  1.44 0.14 0  1.47 0.14 0  1.5 0.14 0  0 0.16 0  0.03 0.16 0  0.06 0.16 0  0.09 0.16 0  0.12 0.16 0  0.15 0.16 0  0.18 0.16 0  0.21 0.16 0  0.24 0.16 0  0.27 0.16 0  0.3 0.16 0  0.33 0.16 0  0.36 0.16 0  0.39 0.16 0  0.42 0.16 0  0.45 0.16 0  0.48 0.16 0  0.51 0.16 0  0.54 0.16 0  0.57 0.16 0  0.6 0.16 0  0.63 0.16 0  0.66 0.16 0  0.6899999999999999 0.16 0  0.72 0.16 0  0.75 0.16 0  0.78 0.16 0  0.8100000000000001 0.16 0  0.84 0.16 0  0.87 0.16 0  0.9 0.16 0  0.93 0.16 0  0.96 0.16 0  0.99 0.16 0  1.02 0.16 0  1.05 0.16 0  1.08 0.16 0  1.11 0.16 0  1.14 0.16 0  1.17 0.16 0  1.2 0.16 0  1.23 0.16 0  1.26 0.16 0  1.29 0.16 0  1.32 0.16 0  1.35 0.16 0  1.38 0.16 0  1.41 0.16 0  1.44 0.16 0  1.47 0.16 0  1.5 0.16 0  0 0.18 0  0.03 0.18 0  0.06 0.18 0  0.09 0.18 0  0.12 0.18 0  0.15 0.18 0  0.18 0.18 0  0.21 0.18 0  0.24 0.18 0  0.27 0.18 0  0.3 0.18 0  0.33 0.18 0  0.36 0.18 0  0.39 0.18 0  0.42 0.18 0  0.45 0.18 0  0.48 0.18 0  0.51 0.18 0  0.54 0.18 0  0.57 0.18 0  0.6 0.18 0  0.63 0.18 0  0.66 0.18 0  0.6899999999999999 0.18 0  0.72 0.18 0  0.75 0.18 0  0.78 0.18 0  0.8100000000000001 0.18 0  0.84 0.18 0  0.87 0.18 0  0.9 0.18 0  0.93 0.18 0  0.96 0.18 0  0.99 0.18 0  1.02 0.18 0  1.05 0.18 0  1.08 0.18 0  1.11 0.18 0  1.14 0.18 0  1.17 0.18 0  1.2 0.18 0  1.23 0.18 0  1.26 0.18 0  1.29 0.18 0  1.32 0.18 0  1.35 0.18 0  1.38 0.18 0  1.41 0.18 0  1.44 0.18 0  1.47 0.18 0  1.5 0.18 0  0 0.2 0  0.03 0.2 0  0.06 0.2 0  0.09 0.2 0  0.12 0.2 0  0.15 0.2 0  0.18 0.2 0  0.21 0.2 0  0.24 0.2 0  0.27 0.2 0  0.3 0.2 0  0.33 0.2 0  0.36 0.2 0  0.39 0.2 0  0.42 0.2 0  0.45 0.2 0  0.48 0.2 0  0.51 0.2 0  0.54 0.2 0  0.57 0.2 0  0.6 0.2 0  0.63 0.2 0  0.66 0.2 0  0.6899999999999999 0.2 0  0.72 0.2 0  0.75 0.2 0  0.78 0.2 0  0.8100000000000001 0.2 0  0.84 0.2 0  0.87 0.2 0  0.9 0.2 0  0.93 0.2 0  0.96 0.2 0  0.99 0.2 0  1.02 0.2 0  1.05 0.2 0  1.08 0.2 0  1.11 0.2 0  1.14 0.2 0  1.17 0.2 0  1.2 0.2 0  1.23 0.2 0  1.26 0.2 0  1.29 0.2 0  1.32 0.2 0  1.35 0.2 0  1.38 0.2 0  1.41 0.2 0  1.44 0.2 0  1.47 0.2 0  1.5 0.2 0  0 0.22 0  0.03 0.22 0  0.06 0.22 0  0.09 0.22 0  0.12 0.22 0  0.15 0.22 0  0.18 0.22 0  0.21 0.22 0  0.24 0.22 0  0.27 0.22 0  0.3 0.22 0  0.33 0.22 0  0.36 0.22 0  0.39 0.22 0  0.42 0.22 0  0.45 0.22 0  0.48 0.22 0  0.51 0.22 0  0.54 0.22 0  0.57 0.22 0  0.6 0.22 0  0.63 0.22 0  0.66 0.22 0  0.6899999999999999 0.22 0  0.72 0.22 0  0.75 0.22 0  0.78 0.22 0  0.8100000000000001 0.22 0  0.84 0.22 0  0.87 0.22 0  0.9 0.22 0  0.93 0.22 0  0.96 0.22 0  0.99 0.22 0  1.02 0.22 0  1.05 0.22 0  1.08 0.22 0  1.11 0.22 0  1.14 0.22 0  1.17 0.22 0  1.2 0.22 0  1.23 0.22 0  1.26 0.22 0  1.29 0.22 0  1.32 0.22 0  1.35 0.22 0  1.38 0.22 0  1.41 0.22 0  1.44 0.22 0  1.47 0.22 0  1.5 0.22 0  0 0.24 0  0.03 0.24 0  0.06 0.24 0  0.09 0.24 0  0.12 0.24 0  0.15 0.24 0  0.18 0.24 0  0.21 0.24 0  0.24 0.24 0  0.27 0.24 0  0.3 0.24 0  0.33 0.24 0  0.36 0.24 0  0.39 0.24 0  0.42 0.24 0  0.45 0.24 0  0.48 0.24 0  0.51 0.24 0  0.54 0.24 0  0.57 0.24 0  0.6 0.24 0  0.63 0.24 0  0.66 0.24 0  0.6899999999999999 0.24 0  0.72 0.24 0  0.75 0.24 0  0.78 0.24 0  0.8100000000000001 0.24 0  0.84 0.24 0  0.87 0.24 0  0.9 0.24 0  0.93 0.24 0  0.96 0.24 0  0.99 0.24 0  1.02 0.24 0  1.05 0.24 0  1.08 0.24 0  1.11 0.24 0  1.14 0.24 0  1.17 0.24 0  1.2 0.24 0  1.23 0.24 0  1.26 0.24 0  1.29 0.24 0  1.32 0.24 0  1.35 0.24 0  1.38 0.24 0  1.41 0.24 0  1.44 0.24 0  1.47 0.24 0  1.5 0.24 0  0 0.26 0  0.03 0.26 0  0.06 0.26 0  0.09 0.26 0  0.12 0.26 0  0.15 0.26 0  0.18 0.26 0  0.21 0.26 0  0.24 0.26 0  0.27 0.26 0  0.3 0.26 0  0.33 0.26 0  0.36 0.26 0  0.39 0.26 0  0.42 0.26 0  0.45 0.26 0  0.48 0.26 0  0.51 0.26 0  0.54 0.26 0  0.57 0.26 0  0.6 0.26 0  0.63 0.26 0  0.66 0.26 0  0.6899999999999999 0.26 0  0.72 0.26 0  0.75 0.26 0  0.78 0.26 0  0.8100000000000001 0.26 0  0.84 0.26 0  0.87 0.26 0  0.9 0.26 0  0.93 0.26 0  0.96 0.26 0  0.99 0.26 0  1.02 0.26 0  1.05 0.26 0  1.08 0.26 0  1.11 0.26 0  1.14 0.26 0  1.17 0.26 0  1.2 0.26 0  1.23 0.26 0  1.26 0.26 0  1.29 0.26 0  1.32 0.26 0  1.35 0.26 0  1.38 0.26 0  1.41 0.26 0  1.44 0.26 0  1.47 0.26 0  1.5 0.26 0  0 0.28 0  0.03 0.28 0  0.06 0.28 0  0.09 0.28 0  0.12 0.28 0  0.15 0.28 0  0.18 0.28 0  0.21 0.28 0  0.24 0.28 0  0.27 0.28 0  0.3 0.28 0  0.33 0.28 0  0.36 0.28 0  0.39 0.28 0  0.42 0.28 0  0.45 0.28 0  0.48 0.28 0  0.51 0.28 0  0.54 0.28 0  0.57 0.28 0  0.6 0.28 0  0.63 0.28 0  0.66 0.28 0  0.6899999999999999 0.28 0  0.72 0.28 0  0.75 0.28 0  0.78 0.28 0  0.8100000000000001 0.28 0  0.84 0.28 0  0.87 0.28 0  0.9 0.28 0  0.93 0.28 0  0.96 0.28 0  0.99 0.28 0  1.02 0.28
[...]
<PointData  Scalars="sensitivity"> 
<DataArray  type="Float64"  Name="sensitivity"  format="ascii">-1.3043629472319910e-06  -1.8496140560225640e-05  -7.7028898525918811e-05  -1.9597011584473290e-04  -3.7567335205325236e-04  -5.9354284763142627e-04  -8.1745523376650921e-04  -1.0200613547595608e-03  -1.1852214422342496e-03  -1.3075234294121498e-03  -1.3885208415344147e-03  -1.4332497075329631e-03  -1.4482229044320404e-03  -1.4403536649161763e-03  -1.4162439562102529e-03  -1.3817226850801833e-03  -1.3416377003617585e-03  -1.2998334507520626e-03  -1.2592222995724809e-03  -1.2218976059355422e-03  -1.1892732618614666e-03  -1.1622405400029917e-03  -1.1413239073063573e-03  -1.1268136227646154e-03  -1.1188609282071834e-03  -1.1175348681500060e-03  -1.1228487978664121e-03  -1.1347648681931835e-03  -1.1531779507010036e-03  -1.1778723647101069e-03  -1.2084418601436655e-03  -1.2441693610111004e-03  -1.2838758197637465e-03  -1.3257580409630149e-03  -1.3672365276597529e-03  -1.4048287498757892e-03  -1.4340695133596292e-03  -1.4495201696856728e-03  -1.4449234623576598e-03  -1.4135414909566494e-03  -1.3486159795308528e-03  -1.2441720685330835e-03  -1.0967883289828950e-03  -9.0865758185041518e-04  -6.9140945745721667e-04  -4.6757942342351389e-04  -2.6766398326718178e-04  -1.2080989330853420e-04  -3.8171487737146641e-05  -5.4757808565018663e-06  -5.2715299559604630e-08  -9.3794170126883030e-06  -7.5545871638462074e-05  -3.0080751403010602e-04  -7.9025526193222213e-04  -1.5631765612486909e-03  -2.5325678765133488e-03  -3.5564157169877628e-03  -4.5037977256735633e-03  -5.2911826307487824e-03  -5.8858047971308298e-03  -6.2898431523209630e-03  -6.5235989329465579e-03  -6.6154983826745778e-03  -6.5968116035068063e-03  -6.4981076217644840e-03  -6.3468138637919448e-03  -6.1660102600362412e-03  -5.9741890467652527e-03  -5.7855117864479572e-03  -5.6102783103850291e-03  -5.4555285432121006e-03  -5.3257477259025894e-03  -5.2235972776729506e-03  -5.1505601874902145e-03  -5.1074187479486612e-03  -5.0945477578269128e-03  -5.1120585084528337e-03  -5.1598388287774919e-03  -5.2375054540209345e-03  -5.3442427088795348e-03  -5.4784786654429622e-03  -5.6373700764954897e-03  -5.8161264929987577e-03  -6.0072659427059258e-03  -6.1999082563299231e-03  -6.3791709028935472e-03  -6.5257460159638195e-03  -6.6158163382140202e-03  -6.6216765210589806e-03  -6.5131152518646670e-03  -6.2593536792540138e-03  -5.8318741547160914e-03  -5.2112732885950513e-03  -4.3991219522451826e-03  -3.4359377004775930e-03  -2.4122135685123148e-03  -1.4584249470943383e-03  -7.1416637123859284e-04  -2.6088323524039482e-04  -6.2296612364710481e-05  -3.6021522042100691e-06  -2.7054774417846834e-05  -1.4692156327261084e-04  -4.3705637820274301e-04  -1.0521215165903517e-03  -1.9939836000470632e-03  -3.1430537264818320e-03  -4.3343525513941149e-03  -5.4210140113172996e-03  -6.3130805294503954e-03  -6.9801209304894132e-03  -7.4285525956265469e-03  -7.6819866409742277e-03  -7.7725089336003906e-03  -7.7360899126178813e-03  -7.6082886771924171e-03  -7.4209846129363252e-03  -7.2009145286165508e-03  -6.9694953445816532e-03  -6.7431466068251875e-03  -6.5337737477098277e-03  -6.3494138435321174e-03  -6.1950654221806312e-03  -6.0735964902073440e-03  -5.9865527026272429e-03  -5.9347362277064209e-03  -5.9185362639672858e-03  -5.9380760164537451e-03  -5.9932537107466070e-03  -6.0837060183869260e-03  -6.2086516621426410e-03  -6.3665314832311573e-03  -6.5543885586191262e-03  -6.7670267272898158e-03  -6.9961011793801915e-03  -7.2292927684123390e-03  -7.4496262272057464e-03  -7.6349807329354619e-03  -7.7579209580972410e-03  -7.7865213263245692e-03  -7.6859236239398233e-03  -7.4214809215333742e-03  -6.9600894630264610e-03  -6.2768286215303228e-03  -5.3657279235911981e-03  -4.2641350653746767e-03  -3.0717050820288057e-03  -1.9280324785077487e-03  -9.9359680697534637e-04  -3.9781206269120465e-04  -1.3066078301587620e-04  -1.6363585755448241e-05  -4.4266477621528827e-05  -2.4909847721529555e-04  -6.5049648031533316e-04  -1.4067184256038672e-03  -2.4509670467686129e-03  -3.6402018202143340e-03  -4.8270024052563514e-03  -5.8737572901891751e-03  -6.7063353758621200e-03  -7.3140143276109832e-03  -7.7112756343156574e-03  -7.9205186379491168e-03  -7.9716621531249893e-03  -7.9003120384214479e-03  -7.7422993947870332e-03  -7.5293737894921746e-03  -7.2878423662096001e-03  -7.0387558352031322e-03  -6.7982925751157311e-03  -6.5780829626605085e-03  -6.3857303900220425e-03  -6.2256737138219392e-03  -6.1002342279995831e-03  -6.0105488638986073e-03  -5.9571862700752371e-03  -5.9404366165490977e-03  -5.9603991358816973e-03  -6.0170014578562634e-03  -6.1099985814267992e-03  -6.2388809255423854e-03  -6.4025456206515050e-03  -6.5986200277951840e-03  -6.8224821036370516e-03  -7.0662342987321868e-03  -7.3178653513095299e-03  -7.5607026822469958e-03  -7.7729199812339236e-03  -7.9271400425021451e-03  -7.9911818825620234e-03  -7.9304450119254757e-03  -7.7142423569726707e-03  -7.3096770062802503e-03  -6.6880341746573310e-03  -5.8340288065963555e-03  -4.7643731269492711e-03  -3.5755645271134846e-03  -2.3873607923113010e-03  -1.3313274561184737e-03  -5.7887897871136977e-04  -2.1200997678760318e-04  -3.4296268170093816e-05  -4.1173293067516917e-05  -3.7469818680275054e-04  -1.0710664008279083e-03  -2.1172117959158900e-03  -3.2652069475935914e-03  -4.4338081437207567e-03  -5.5625439804500585e-03  -6.5023242808256096e-03  -7.2114210816783047e-03  -7.7141631879254387e-03  -8.0289159889958446e-03  -8.1693403722896268e-03  -8.1600971901528690e-03  -8.0366653767860591e-03  -7.8353540249304215e-03  -7.5870997151394511e-03  -7.3169199824987003e-03  -7.0449584946382310e-03  -6.7868832997435465e-03  -6.5538139981863785e-03  -6.3525731153100846e-03  -6.1866124345912868e-03  -6.0573238593893651e-03  -5.9651910914288305e-03  -5.9104471275072089e-03  -5.8932634694579536e-03  -5.9137133124396750e-03  -5.9717454564092963e-03  -6.0672522195286361e-03  -6.2001115273167956e-03  -6.3699415258586869e-03  -6.5753449523491912e-03  -6.8126795487819707e-03  -7.0747836212947104e-03  -7.3502166773855180e-03  -7.6230212808453260e-03  -7.8719990261042240e-03  -8.0703494083495132e-03  -8.1856452761268472e-03  -8.1852390617837053e-03  -8.0414395245764544e-03  -7.7263275300208222e-03  -7.2119055493422594e-03  -6.4912853416018764e-03  -5.5116234529330593e-03  -4.3842946851420884e-03  -3.2389811500137234e-03  -2.0507720842329927e-03  -9.5971826331821069e-04  -2.8042387839689577e-04  -4.0993585302118870e-05  -4.5288626836379743e-05  -7.0907557044222328e-04  -2.6703983407362518e-03  -5.0125144274069545e-03  -5.9995618150138754e-03  -6.3996726640225890e-03  -6.9059249412578389e-03  -7.4359599514918200e-03  -7.8893903485572139e-03  -8.2336307527601498e-03  -8.4412411386195728e-03  -8.4919655765748978e-03  -8.4013872549514295e-03  -8.2078129818302439e-03  -7.9493077563239038e-03  -7.6549642744537533e-03  -7.3474122246782016e-03  -7.0455353794575265e-03  -6.7645591947875817e-03  -6.5150936691198043e-03  -6.3028731103955873e-03  -6.1298485442181552e-03  -5.9960167447956269e-03  -5.9009559256082613e-03  -5.8445164620525925e-03  -5.8267947533798296e-03  -5.8478595494507683e-03  -5.9076400040695073e-03  -6.0061198917377252e-03  -6.1436373525593762e-03  -6.3208262456809234e-03  -6.5377588467963096e-03  -6.7922708855169571e-03  -7.0781422832856622e-03  -7.3846373236556651e-03  -7.6964167921002805e-03  -7.9935086307207203e-03  -8.2516339620190907e-03  -8.4356849013676443e-03  -8.5131146342892362e-03  -8.4496627082615555e-03  -8.2958265688675044e-03  -7.9846182188311066e-03  -7.6442585501094763e-03  -7.2011388709691546e-03  -6.8516378334794042e-03  -6.3428665496112792e-03  -4.3707740591416768e-03  -1.8915117503133347e-03  -3.8677147363134400e-04  -2.7525481697618603e-05  -5.9558976484380720e-04  -3.0366649757387165e-03  -1.0715495622558633e-02  -1.9677439424227321e-02  -2.2405482101510606e-02  -1.8556601061625305e-02  -1.3456015412287609e-02  -1.0053855141049364e-02  -8.9598633297988204e-03  -8.9051724604217435e-03  -8.9580694099896836e-03  -8.8954465777047881e-03  -8.6983773882894529e-03  -8.4144411681418684e-03  -8.0851250987112374e-03  -7.7344962017305502e-03  -7.3809255965088753e-03  -7.0418593582970328e-03  -6.7325659309469803e-03  -6.4633959371525745e-03  -6.2386014474156279e-03  -6.0578552918439917e-03  -5.9190971483701615e-03  -5.8207247449894011e-03  -5.7622586600228967e-03  -5.7438744316356738e-03  -5.7656986010011487e-03  -5.8275422431101663e-03  -5.9293149143947342e-03  -6.0718001020714178e-03  -6.2569997293949421e-03  -6.4871761538940302e-03  -6.7624288437976654e-03  -7.0775937269294438e-03  -7.4223696307599485e-03  -7.7816957052836552e-03  -8.1400725272054251e-03  -8.4744254031091561e-03  -8.7422169201944611e-03  -8.9216517781022225e-03  -8.9797922934043099e-03  -9.1817810751203353e-03  -9.5223176494128123e-03  -1.1071413604673950e-02  -1.3780191589159099e-02  -1.7908323439211764e-02  -2.2268440876969046e-02  -2.0276450040915571e-02  -1.1913284486634729e-02  -2.5283371536365868e-03  -9.3207824897745207e-05  -1.8126349322010891e-03  -1.8756767514589722e-02  -3.1506909236183885e-02  -3.1521063708253715e-02  -3.1523092166036382e-02  -3.1511627556905744e-02  -3.1499102409654839e-02  -2.5009088734336462e-02  -1.4398145633310199e-02  -1.0396948061646526e-02  -9.6677004366462552e-03  -9.3987902504093414e-03  -9.0498913491775575e-03  -8.6514655597664369e-03  -8.2394469338012838e-03  -7.8236482353700888e-03  -7.4155024115754083e-03  -7.0315000463980638e-03  -6.6882219413950030e-03  -6.3964799645793886e-03  -6.1584266960427033e-03  -5.9701630621072877e-03  -5.8265783352576530e-03  -5.7246168614407357e-03  -5.6637290704936944e-03  -5.6445215451740955e-03  -5.6673119571612795e-03  -5.7315976910208791e-03  -5.8368229466929898e-03  -5.9840239394873271e-03  -6.1769893230749027e-03  -6.4212331567799104e-03  -6.7204880972828234e-03  -7.0707183662992628e-03  -7.4609691165876332e-03  -7.8773369859113738e-03  -8.3090499730113683e-03  -8.7291953860070253e-03  -9.1311093149741770e-03  -9.4822718055805194e-03  -9.8484965700473721e-03  -1.1616685737619528e-02  -1.5075608598093253e-02  -2.3201799347309475e-02  -3.1473825528954662e-02  -3.1505441026924812e-02  -3.1525928145992914e-02  -3.1522056950310726e-02  -3.1509651304219254e-02  -1.9159620574881176e-02  -1.7580038191718690e-03  -9.4174914368546601e-03  -3.1518092520801844e-02  -3.1520334568886595e-02  -3.1520866466279045e-02  -3.1521323499509889e-02  -3.1517828727818345e-02  -3.1514117619336514e-02  -3.1511148821117385e-02  -3.1503218312155232e-02  -1.9235308653655192e-02  -1.2023695935847551e-02  -1.0162741101594458e-02  -9.4661371639581313e-03  -8.9109501035262127e-03  -8.4091622323138882e-03  -7.9207914034699605e-03  -7.4492585199347709e-03  -7.0113900631611327e-03  -6.6276976531042756e-03  -6.3111560646067965e-03  -6.0606221802258445e-03  -5.8663363066021315e-03  -5.7186125788003701e-03  -5.6127569512229797e-03  -5.5488253735766274e-03  -5.5285357309148948e-03  -5.5526476794817703e-03  -5.6200030270671534e-03  -5.7287797950165533e-03  -5.8797347833478043e-03  -6.0788308208017255e-03  -6.3364754478090072e-03  -6.6627603268060599e-03  -7.0555395927317842e-03  -7.4980624901142398e-03  -7.9815319428446201e-03  -8.4879830570493819e-03  -9.0428355624784674e-03  -9.7014899304320411e-03  -1.0591947727116389e-02  -1.2914758588661477e-02  -1.9223280683237337e-02  -3.1479033786214035e-02  -3.1487636634082508e-02  -3.1510513549222199e-02  -3.1516276373469515e-02  -3.1520958784622341e-02  -3.1523016338963164e-02  -3.1520972257454309e-02  -3.1517398518949261e-02  -7.1381683948161514e-03  -1.5760635829048974e-02  -3.1520564114300424e-02  -3.1519493651057794e-02  -3.1520316576046883e-02  -3.1520570168783693e-02  -3.1520201929306164e-02  -3.1519665871523425e-02  -3.1515980016100412e-02  -3.1520045746036437e-02  -3.1529711094066444e-02  -2.4614561535113787e-02  -1.3783543077895883e-02  -1.0199894530640744e-02  -9.2205188557742020e-03  -8.6002802203846065e-03  -8.0267209505532813e-03  -7.4816148357973759e-03  -6.9782201502167594e-03  -6.5456634309193351e-03  -6.2031639389822013e-03  -5.9433659024634260e-03  -5.7464878354131351e-03  -5.5959537413506717e-03  -5.4855386975120879e-03  -5.4173942574389754e-03  -5.3955543700187417e-03  -5.4216417469084132e-03  -5.4933332712419217e-03  -5.6059923264275471e-03  -5.7588985759372590e-03  -5.9603842309897976e-03  -6.2286258132460580e-03  -6.5841187064163533e-03  -7.0312556184788377e-03  -7.5297820827367719e-03  -8.1026086823408824e-03  -8.6979386148231339e-03  -9.5416839679815773e-03  -1.1201885478746752e-02  -1.4492507601793807e-02  -2.3023505488485429e-02  -3.1562150660260066e-02  -3.1537753901861171e-02  -3.1518314332719594e-02  -3.1517153183852148e-02  -3.1519241945491334e-02  -3.1520063275186909e-02  -3.1519976493311064e-02  -3.1519046133923465e-02  -3.1518398183888387e-02  -1.5758706418549935e-02  -1.8326371006698757e-02  -3.1540389306828995e-02  -3.1521758587373112e-02  -3.1521469155565619e-02  -3.1520714808791990e-02  -3.1520181250326081e-02  -3.1520323347498450e-02  -3.1520379792834383e-02  -3.1519180092040286e-02  -3.1518844156082630e-02  -3.1514400853594686e-02  -3.0467689949560912e-02  -1.5587975190764110e-02  -1.0290234411369628e-02  -8.9289698945360096e-03  -8.1608735602119609e-03  -7.5206711324570415e-03  -6.9308449822412799e-03  -6.4350841442245383e-03  -6.0675990395761339e-03  -5.8056280584853522e-03  -5.6123065837423870e-03  -5.4608011740917613e-03  -5.3440500313652632e-03  -5.2694464393525792e-03  -5.2453076393092985e-03  -5.2744725407598454e-03  -5.3531175892943391e-03  -5.4708373744044025e-03  -5.6230388045571044e-03  -5.8205056205528774e-03  -6.0933477721898067e-03  -6.4766231985650497e-03  -7.0092950904942688e-03  -7.5788442737023997e-03  -8.3021133651915505e-03  -9.1789449984316391e-03  -1.1664543607041009e-02  -1.6353445696639553e-02  -2.7501655099725172e-02  -3.1501308909796313e-02  -3.1519829642456913e-02  -3.1528793815768931e-02  -3.1521697631584508e-02  -3.1519357142214363e-02  -3.1520247924928489e-02  -3.1521212237739391e-02  -3.1521303751014466e-02  -3.1522143738300291e-02  -3.1811737951968261e-02  -1.6625110334680285e-02  -2.8533040464854668e-02  -4.6138504276341766e-02  -3.5624948514143433e-02  -3.1523081672111986e-02  -3.1521544859072333e-02  -3.1521101994150799e-02  -3.1520355865691956e-02  -3.1520306124010203e-02  -3.1520763740050230e-02  -3.1520450327350076e-02  -3.1514957356965842e-02  -3.1511211452833462e-02  -3.1473517858303990e-02  -1.9093145046630206e-02  -1.1373297443504259e-02  -8.7066108017631420e-03  -7.6941380163755369e-03  -6.9128583234487721e-03  -6.3084663473162075e-03  -5.9142267954972062e-03  -5.6577619416781893e-03  -5.4754700714675494e-03  -5.3237674232415946e-03  -5.1956707907765583e-03  -5.1103687168089556e-03  -5.0827794526069666e-03  -5.1164504913689618e-03  -5.2083087834626871e-03  -5.3359086127925332e-03  -5.4868894101284954e-03  -5.6755775688493828e-03  -5.9489204728200807e-03  -6.3667334446431559e-03  -7.0778280722496780e-03  -7.8582770035548078e-03  -9.4184027246868706e-03  -1.2428420935065356e-02  -1.8973333277845138e-02  -3.1420845424902505e-02  -3.1490169759802115e-02  -3.1512704207487419e-02  -3.1520763402050768e-02  -3.1521504405279732e-02  -3.1521165295598418e-02  -3.1520910708256154e-02  -3.1521405996820628e-02  -3.1521507521722204e-02  -3.1523388413043495e-02  -3.7739163955445541e-02  -4.7930778022070006e-02  -2.5075466175651314e-02  -3.5080402771817579e-02  -6.0546879582018903e-02  -4.6019521462851563e-02  -3.5288382070494437e-02  -3.1522679203121240e-02  -3.1522098084652270e-02  -3.1521331502712961e-02  -3.1520605871711807e-02  -3.1520151177201340e-02  -3.1520518540595656e-02  -3.1520643228021623e-02  -3.1516289257073303e-02  -3.1518333337885313e-02  -3.1494916586235523e-02  -2.6604148922225696e-02  -1.5730552275497512e-02  -1.0374044414579710e-02  -7.8684726179039238e-03  -6.6743141319496315e-03  -6.0650539114507325e-03  -5.7170377819465183e-03  -5.4961759201605691e-03  -5.3139894793600758e-03  -5.1520643162944408e-03  -5.0456387652391375e-03  -5.0130084774488758e-03  -5.0554312139707508e-03  -5.1789714361291372e-03  -5.3446735064878398e-03  -5.5379866271738467e-03  -5.7955493868696722e-03  -6.2116339993790780e-03  -6.9518170977583768e-03  -8.7095666914707177e-03  -1.1287706013324565e-02  -1.5546136750617457e-02  -2.5142614921913758e-02  -3.1458683642679661e-02  -3.1549691649238966e-02  -3.1522666384621187e-02  -3.1517678000711050e-02  -3.1520072639046479e-02  -3.1521340259550314e-02  -3.1521571269749998e-02  -3.1521653687081576e-02  -3.1521512447829622e-02  -3.1523340775893090e-02  -3.6357153206555123e-02  -4.6458311472181463e-02  -6.0499427102790798e-02  -3.3666353402272788e-02  -3.4014057570699259e-02  -6.2913798622140638e-02  -5.0483480002160082e-02  -3.9846158348380067e-02  -3.2802222134075798e-02  -3.1522784266358399e-02  -3.1522127658890703e-02  -3.1521615572648931e-02  -3.1520646256306677e-02  -3.1519748243316097e-02  -3.1520059521108999e-02  -3.1520806697576946e-02  -3.1518436443613476e-02  -3.1516018451566610e-02  -3.1515343631618627e-02  -3.1532894839108642e-02  -2.8234843258782477e-02  -1.9379831464534980e-02  -1.4291935885345561e-02  -1.1657815239777261e-02  -1.0090005132398086e-02  -9.1179293724518908e-03  -8.4360099174697004e-03  -7.9645007394911517e-03  -7.7303054337932511e-03  -7.6774969186498261e-03  -7.7856092892455162e-03  -8.1077750857201387e-03  -8.5743591446331216e-03  -9.2075393532208318e-03  -1.0169261121815387e-02  -1.1698185848927421e-02  -1.4203540269955694e-02  -1.8948973776671266e-02  -2.7391653034859669e-02  -3.1428579656773259e-02  -3.1493328625759764e-02  -3.1508320770973715e-02  -3.1522970147754133e-02  -3.1524970936755499e-02  -3.1519946377231531e-02  -3.1520742354949130e-02  -3.1521651637997548e-02  -3.1522149284939474e-02  -3.1522542800142300e-02  -3.1522668301138923e-02  -3.3328973764047094e-02  -3.9793015468186740e-02  -4.9833200595342533e-02  -6.2143421533361394e-02  -3.5179879278314237e-02  -2.5773094283643369e-02  -5.2483086634330052e-02  -4.5938854903055472e-02  -3.9539474068151594e-02  -3.4225382407210639e-02  -3.1525262006567821e-02  -3.1523071198477588e-02  -3.1522108963062817e-02  -3.1521706631089642e-02  -3.1520522013281378e-02  -3.1519418080968913e-02  -3.1519639955682653e-02  -3.1520853209395593e-02  -3.1520353170893897e-02  -3.1517259142136024e-02  -3.1522191799936421e-02  -3.1516901316087045e-02  -3.1482696144457104e-02  -3.1549950916618573e-02  -3.1462838162511976e-02  -3.1476970332983793e-02  -3.1385040043054389e-02  -3.0985939391080929e-02  -2.9818614381160211e-02  -2.9008869042470666e-02  -2.8749619143443750e-02  -2.8960794469165486e-02  -2.9714941561745520e-02  -3.0878379418907066e-02  -3.1384271385947918e-02  -3.1538185545761654e-02  -3.1482411801998636e-02  -3.1519716501520030e-02  -3.1508910687235700e-02  -3.1541938818296714e-02  -3.1523796075707544e-02  -3.1512277048479351e-02  -3.1519180694881098e-02  -3.1519536714229190e-02  -3.1520408463924871e-02  -3.1520645626803546e-02  -3.1521609090996112e-02  -3.1522137732359332e-02  -3.1522583054323074e-02  -3.1523252636365649e-02  -3.1526691480623467e-02  -3.4121069351394917e-02  -3.8784073379096014e-02  -4.4794826710928645e-02  -5.1203796266065374e-02  -2.9053067928837658e-02  -1.6698178710428217e-02  -3.6184283126083586e-02  -3.5935866481518336e-02  -3.4728722506381017e-02  -3.2988022491630763e-02  -3.1530673622969164e-02  -3.1523455609010813e-02  -3.1522522971540207e-02  -3.1522219689578156e-02  -3.1521676873968389e-02  -3.1520473535765051e-02  -3.1519307146617152e-02  -3.1519204743378569e-02  -3.1520438769026021e-02  -3.1521735552034046e-02  -3.1522392009912928e-02  -3.1520257255655576e-02  -3.1512394351784712e-02  -3.1518238985887688e-02  -3.1520959604151466e-02  -3.1513659823719162e-02  -3.1517826491507882e-02  -3.1515267623095727e-02  -3.1519098566704949e-02  -3.1517754569958208e-02  -3.1518466046570402e-02  -3.1518230039072823e-02  -3.1516781058442446e-02  -3.1514706720747222e-02  -3.1510398079630832e-02  -3.1518685803133821e-02  -