<?xml version="1.0"?>
<VTKFile type="UnstructuredGrid"  version="0.1"  >
<UnstructuredGrid>
<Piece  NumberOfPoints="2601" NumberOfCells="5000">
<Points>
<DataArray  type="Float64"  NumberOfComponents="3"  format="ascii">0 0 0  0.03 0 0  0.06 0 0  0.09 0 0  0.12 0 0  0.15 0 0  0.18 0 0  0.21 0 0  0.24 0 0  0.27 0 0  0.3 0 0  0.33 0 0  0.36 0 0  0.39 0 0  0.42 0 0  0.45 0 0  0.48 0 0  0.51 0 0  0.54 0 0  0.57 0 0  0.6 0 0  0.63 0 0  0.66 0 0  0.6899999999999999 0 0  0.72 0 0  0.75 0 0  0.78 0 0  0.8100000000000001 0 0  0.84 0 0  0.87 0 0  0.9 0 0  0.93 0 0  0.96 0 0  0.99 0 0  1.02 0 0  1.05 0 0  1.08 0 0  1.11 0 0  1.14 0 0  1.17 0 0  1.2 0 0  1.23 0 0  1.26 0 0  1.29 0 0  1.32 0 0  1.35 0 0  1.38 0 0  1.41 0 0  1.44 0 0  1.47 0 0  1.5 0 0  0 0.02 0  0.03 0.02 0  0.06 0.02 0  0.09 0.02 0  0.12 0.02 0  0.15 0.02 0  0.18 0.02 0  0.21 0.02 0  0.24 0.02 0  0.27 0.02 0  0.3 0.02 0  0.33 0.02 0  0.36 0.02 0  0.39 0.02 0  0.42 0.02 0  0.45 0.02 0  0.48 0.02 0  0.51 0.02 0  0.54 0.02 0  0.57 0.02 0  0.6 0.02 0  0.63 0.02 0  0.66 0.02 0  0.6899999999999999 0.02 0  0.72 0.02 0  0.75 0.02 0  0.78 0.02 0  0.8100000000000001 0.02 0  0.84 0.02 0  0.87 0.02 0  0.9 0.02 0  0.93 0.02 0  0.96 0.02 0  0.99 0.02 0  1.02 0.02 0  1.05 0.02 0  1.08 0.02 0  1.11 0.02 0  1.14 0.02 0  1.17 0.02 0  1.2 0.02 0  1.23 0.02 0  1.26 0.02 0  1.29 0.02 0  1.32 0.02 0  1.35 0.02 0  1.38 0.02 0  1.41 0.02 0  1.44 0.02 0  1.47 0.02 0  1.5 0.02 0  0 0.04 0  0.03 0.04 0  0.06 0.04 0  0.09 0.04 0  0.12 0.04 0  0.15 0.04 0  0.18 0.04 0  0.21 0.04 0  0.24 0.04 0  0.27 0.04 0  0.3 0.04 0  0.33 0.04 0  0.36 0.04 0  0.39 0.04 0  0.42 0.04 0  0.45 0.04 0  0.48 0.04 0  0.51 0.04 0  0.54 0.04 0  0.57 0.04 0  0.6 0.04 0  0.63 0.04 0  0.66 0.04 0  0.6899999999999999 0.04 0  0.72 0.04 0  0.75 0.04 0  0.78 0.04 0  0.8100000000000001 0.04 0  0.84 0.04 0  0.87 0.04 0  0.9 0.04 0  0.93 0.04 0  0.96 0.04 0  0.99 0.04 0  1.02 0.04 0  1.05 0.04 0  1.08 0.04 0  1.11 0.04 0  1.14 0.04 0  1.17 0.04 0  1.2 0.04 0  1.23 0.04 0  1.26 0.04 0  1.29 0.04 0  1.32 0.04 0  1.35 0.04 0  1.38 0.04 0  1.41 0.04 0  1.44 0.04 0  1.47 0.04 0  1.5 0.04 0  0 0.06 0  0.03 0.06 0  0.06 0.06 0  0.09 0.06 0  0.12 0.06 0  0.15 0.06 0  0.18 0.06 0  0.21 0.06 0  0.24 0.06 0  0.27 0.06 0  0.3 0.06 0  0.33 0.06 0  0.36 0.06 0  0.39 0.06 0  0.42 0.06 0  0.45 0.06 0  0.48 0.06 0  0.51 0.06 0  0.54 0.06 0  0.57 0.06 0  0.6 0.06 0  0.63 0.06 0  0.66 0.06 0  0.6899999999999999 0.06 0  0.72 0.06 0  0.75 0.06 0  0.78 0.06 0  0.8100000000000001 0.06 0  0.84 0.06 0  0.87 0.06 0  0.9 0.06 0  0.93 0.06 0  0.96 0.06 0  0.99 0.06 0  1.02 0.06 0  1.05 0.06 0  1.08 0.06 0  1.11 0.06 0  1.14 0.06 0  1.17 0.06 0  1.2 0.06 0  1.23 0.06 0  1.26 0.06 0  1.29 0.06 0  1.32 0.06 0  1.35 0.06 0  1.38 0.06 0  1.41 0.06 0  1.44 0.06 0  1.47 0.06 0  1.5 0.06 0  0 0.08 0  0.03 0.08 0  0.06 0.08 0  0.09 0.08 0  0.12 0.08 0  0.15 0.08 0  0.18 0.08 0  0.21 0.08 0  0.24 0.08 0  0.27 0.08 0  0.3 0.08 0  0.33 0.08 0  0.36 0.08 0  0.39 0.08 0  0.42 0.08 0  0.45 0.08 0  0.48 0.08 0  0.51 0.08 0  0.54 0.08 0  0.57 0.08 0  0.6 0.08 0  0.63 0.08 0  0.66 0.08 0  0.6899999999999999 0.08 0  0.72 0.08 0  0.75 0.08 0  0.78 0.08 0  0.8100000000000001 0.08 0  0.84 0.08 0  0.87 0.08 0  0.9 0.08 0  0.93 0.08 0  0.96 0.08 0  0.99 0.08 0  1.02 0.08 0  1.05 0.08 0  1.08 0.08 0  1.11 0.08 0  1.14 0.08 0  1.17 0.08 0  1.2 0.08 0  1.23 0.08 0  1.26 0.08 0  1.29 0.08 0  1.32 0.08 0  1.35 0.08 0  1.38 0.08 0  1.41 0.08 0  1.44 0.08 0  1.47 0.08 0  1.5 0.08 0  0 0.1 0  0.03 0.1 0  0.06 0.1 0  0.09 0.1 0  0.12 0.1 0  0.15 0.1 0  0.18 0.1 0  0.21 0.1 0  0.24 0.1 0  0.27 0.1 0  0.3 0.1 0  0.33 0.1 0  0.36 0.1 0  0.39 0.1 0  0.42 0.1 0  0.45 0.1 0  0.48 0.1 0  0.51 0.1 0  0.54 0.1 0  0.57 0.1 0  0.6 0.1 0  0.63 0.1 0  0.66 0.1 0  0.6899999999999999 0.1 0  0.72 0.1 0  0.75 0.1 0  0.78 0.1 0  0.8100000000000001 0.1 0  0.84 0.1 0  0.87 0.1 0  0.9 0.1 0  0.93 0.1 0  0.96 0.1 0  0.99 0.1 0  1.02 0.1 0  1.05 0.1 0  1.08 0.1 0  1.11 0.1 0  1.14 0.1 0  1.17 0.1 0  1.2 0.1 0  1.23 0.1 0  1.26 0.1 0  1.29 0.1 0  1.32 0.1 0  1.35 0.1 0  1.38 0.1 0  1.41 0.1 0  1.44 0.1 0  1.47 0.1 0  1.5 0.1 0  0 0.12 0  0.03 0.12 0  0.06 0.12 0  0.09 0.12 0  0.12 0.12 0  0.15 0.12 0  0.18 0.12 0  0.21 0.12 0  0.24 0.12 0  0.27 0.12 0  0.3 0.12 0  0.33 0.12 0  0.36 0.12 0  0.39 0.12 0  0.42 0.12 0  0.45 0.12 0  0.48 0.12 0  0.51 0.12 0  0.54 0.12 0  0.57 0.12 0  0.6 0.12 0  0.63 0.12 0  0.66 0.12 0  0.6899999999999999 0.12 0  0.72 0.12 0  0.75 0.12 0  0.78 0.12 0  0.8100000000000001 0.12 0  0.84 0.12 0  0.87 0.12 0  0.9 0.12 0  0.93 0.12 0  0.96 0.12 0  0.99 0.12 0  1.02 0.12 0  1.05 0.12 0  1.08 0.12 0  1.11 0.12 0  1.14 0.12 0  1.17 0.12 0  1.2 0.12 0  1.23 0.12 0  1.26 0.12 0  1.29 0.12 0  1.32 0.12 0  1.35 0.12 0  1.38 0.12 0  1.41 0.12 0  1.44 0.12 0  1.47 0.12 0  1.5 0.12 0  0 0.14 0  0.03 0.14 0  0.06 0.14 0  0.09 0.14 0  0.12 0.14 0  0.15 0.14 0  0.18 0.14 0  0.21 0.14 0  0.24 0.14 0  0.27 0.14 0  0.3 0.14 0  0.33 0.14 0  0.36 0.14 0  0.39 0.14 0  0.42 0.14 0  0.45 0.14 0  0.48 0.14 0  0.51 0.14 0  0.54 0.14 0  0.57 0.14 0  0.6 0.14 0  0.63 0.14 0  0.66 0.14 0  0.6899999999999999 0.14 0  0.72 0.14 0  0.75 0.14 0  0.78 0.14 0  0.8100000000000001 0.14 0  0.84 0.14 0  0.87 0.14 0  0.9 0.14 0  0.93 0.14 0  0.96 0.14 0  0.99 0.14 0  1.02 0.14 0  1.05 0.14 0  1.08 0.14 0  1.11 0.14 0  1.14 0.14 0  1.17 0.14 0  1.2 0.14 0  1.23 0.14 0  1.26 0.14 0  1.29 0.14 0  1.32 0.14 0  1.35 0.14 0  1.38 0.14 0  1.41 0.14 0  1.44 0.14 0  1.47 0.14 0  1.5 0.14 0  0 0.16 0  0.03 0.16 0  0.06 0.16 0  0.09 0.16 0  0.12 0.16 0  0.15 0.16 0  0.18 0.16 0  0.21 0.16 0  0.24 0.16 0  0.27 0.16 0  0.3 0.16 0  0.33 0.16 0  0.36 0.16 0  0.39 0.16 0  0.42 0.16 0  0.45 0.16 0  0.48 0.16 0  0.51 0.16 0  0.54 0.16 0  0.57 0.16 0  0.6 0.16 0  0.63 0.16 0  0.66 0.16 0  0.6899999999999999 0.16 0  0.72 0.16 0  0.75 0.16 0  0.78 0.16 0  0.8100000000000001 0.16 0  0.84 0.16 0  0.87 0.16 0  0.9 0.16 0  0.93 0.16 0  0.96 0.16 0  0.99 0.16 0  1.02 0.16 0  1.05 0.16 0  1.08 0.16 0  1.11 0.16 0  1.14 0.16 0  1.17 0.16 0  1.2 0.16 0  1.23 0.16 0  1.26 0.16 0  1.29 0.16 0  1.32 0.16 0  1.35 0.16 0  1.38 0.16 0  1.41 0.16 0  1.44 0.16 0  1.47 0.16 0  1.5 0.16 0  0 0.18 0  0.03 0.18 0  0.06 0.18 0  0.09 0.18 0  0.12 0.18 0  0.15 0.18 0  0.18 0.18 0  0.21 0.18 0  0.24 0.18 0  0.27 0.18 0  0.3 0.18 0  0.33 0.18 0  0.36 0.18 0  0.39 0.18 0  0.42 0.18 0  0.45 0.18 0  0.48 0.18 0  0.51 0.18 0  0.54 0.18 0  0.57 0.18 0  0.6 0.18 0  0.63 0.18 0  0.66 0.18 0  0.6899999999999999 0.18 0  0.72 0.18 0  0.75 0.18 0  0.78 0.18 0  0.8100000000000001 0.18 0  0.84 0.18 0  0.87 0.18 0  0.9 0.18 0  0.93 0.18 0  0.96 0.18 0  0.99 0.18 0  1.02 0.18 0  1.05 0.18 0  1.08 0.18 0  1.11 0.18 0  1.14 0.18 0  1.17 0.18 0  1.2 0.18 0  1.23 0.18 0  1.26 0.18 0  1.29 0.18 0  1.32 0.18 0  1.35 0.18 0  1.38 0.18 0  1.41 0.18 0  1.44 0.18 0  1.47 0.18 0  1.5 0.18 0  0 0.2 0  0.03 0.2 0  0.06 0.2 0  0.09 0.2 0  0.12 0.2 0  0.15 0.2 0  0.18 0.2 0  0.21 0.2 0  0.24 0.2 0  0.27 0.2 0  0.3 0.2 0  0.33 0.2 0  0.36 0.2 0  0.39 0.2 0  0.42 0.2 0  0.45 0.2 0  0.48 0.2 0  0.51 0.2 0  0.54 0.2 0  0.57 0.2 0  0.6 0.2 0  0.63 0.2 0  0.66 0.2 0  0.6899999999999999 0.2 0  0.72 0.2 0  0.75 0.2 0  0.78 0.2 0  0.8100000000000001 0.2 0  0.84 0.2 0  0.87 0.2 0  0.9 0.2 0  0.93 0.2 0  0.96 0.2 0  0.99 0.2 0  1.02 0.2 0  1.05 0.2 0  1.08 0.2 0  1.11 0.2 0  1.14 0.2 0  1.17 0.2 0  1.2 0.2 0  1.23 0.2 0  1.26 0.2 0  1.29 0.2 0  1.32 0.2 0  1.35 0.2 0  1.38 0.2 0  1.41 0.2 0  1.44 0.2 0  1.47 0.2 0  1.5 0.2 0  0 0.22 0  0.03 0.22 0  0.06 0.22 0  0.09 0.22 0  0.12 0.22 0  0.15 0.22 0  0.18 0.22 0  0.21 0.22 0  0.24 0.22 0  0.27 0.22 0  0.3 0.22 0  0.33 0.22 0  0.36 0.22 0  0.39 0.22 0  0.42 0.22 0  0.45 0.22 0  0.48 0.22 0  0.51 0.22 0  0.54 0.22 0  0.57 0.22 0  0.6 0.22 0  0.63 0.22 0  0.66 0.22 0  0.6899999999999999 0.22 0  0.72 0.22 0  0.75 0.22 0  0.78 0.22 0  0.8100000000000001 0.22 0  0.84 0.22 0  0.87 0.22 0  0.9 0.22 0  0.93 0.22 0  0.96 0.22 0  0.99 0.22 0  1.02 0.22 0  1.05 0.22 0  1.08 0.22 0  1.11 0.22 0  1.14 0.22 0  1.17 0.22 0  1.2 0.22 0  1.23 0.22 0  1.26 0.22 0  1.29 0.22 0  1.32 0.22 0  1.35 0.22 0  1.38 0.22 0  1.41 0.22 0  1.44 0.22 0  1.47 0.22 0  1.5 0.22 0  0 0.24 0  0.03 0.24 0  0.06 0.24 0  0.09 0.24 0  0.12 0.24 0  0.15 0.24 0  0.18 0.24 0  0.21 0.24 0  0.24 0.24 0  0.27 0.24 0  0.3 0.24 0  0.33 0.24 0  0.36 0.24 0  0.39 0.24 0  0.42 0.24 0  0.45 0.24 0  0.48 0.24 0  0.51 0.24 0  0.54 0.24 0  0.57 0.24 0  0.6 0.24 0  0.63 0.24 0  0.66 0.24 0  0.6899999999999999 0.24 0  0.72 0.24 0  0.75 0.24 0  0.78 0.24 0  0.8100000000000001 0.24 0  0.84 0.24 0  0.87 0.24 0  0.9 0.24 0  0.93 0.24 0  0.96 0.24 0  0.99 0.24 0  1.02 0.24 0  1.05 0.24 0  1.08 0.24 0  1.11 0.24 0  1.14 0.24 0  1.17 0.24 0  1.2 0.24 0  1.23 0.24 0  1.26 0.24 0  1.29 0.24 0  1.32 0.24 0  1.35 0.24 0  1.38 0.24 0  1.41 0.24 0  1.44 0.24 0  1.47 0.24 0  1.5 0.24 0  0 0.26 0  0.03 0.26 0  0.06 0.26 0  0.09 0.26 0  0.12 0.26 0  0.15 0.26 0  0.18 0.26 0  0.21 0.26 0  0.24 0.26 0  0.27 0.26 0  0.3 0.26 0  0.33 0.26 0  0.36 0.26 0  0.39 0.26 0  0.42 0.26 0  0.45 0.26 0  0.48 0.26 0  0.51 0.26 0  0.54 0.26 0  0.57 0.26 0  0.6 0.26 0  0.63 0.26 0  0.66 0.26 0  0.6899999999999999 0.26 0  0.72 0.26 0  0.75 0.26 0  0.78 0.26 0  0.8100000000000001 0.26 0  0.84 0.26 0  0.87 0.26 0  0.9 0.26 0  0.93 0.26 0  0.96 0.26 0  0.99 0.26 0  1.02 0.26 0  1.05 0.26 0  1.08 0.26 0  1.11 0.26 0  1.14 0.26 0  1.17 0.26 0  1.2 0.26 0  1.23 0.26 0  1.26 0.26 0  1.29 0.26 0  1.32 0.26 0  1.35 0.26 0  1.38 0.26 0  1.41 0.26 0  1.44 0.26 0  1.47 0.26 0  1.5 0.26 0  0 0.28 0  0.03 0.28 0  0.06 0.28 0  0.09 0.28 0  0.12 0.28 0  0.15 0.28 0  0.18 0.28 0  0.21 0.28 0  0.24 0.28 0  0.27 0.28 0  0.3 0.28 0  0.33 0.28 0  0.36 0.28 0  0.39 0.28 0  0.42 0.28 0  0.45 0.28 0  0.48 0.28 0  0.51 0.28 0  0.54 0.28 0  0.57 0.28 0  0.6 0.28 0  0.63 0.28 0  0.66 0.28 0  0.6899999999999999 0.28 0  0.72 0.28 0  0.75 0.28 0  0.78 0.28 0  0.8100000000000001 0.28 0  0.84 0.28 0  0.87 0.28 0  0.9 0.28 0  0.93 0.28 0  0.96 0.28 0  0.99 0.28 0  1.02 0.28
[...]
<PointData  Scalars="sensitivity"> 
<DataArray  type="Float64"  Name="sensitivity"  format="ascii">-1.3038049647862345e-06  -1.8488287289180739e-05  -7.6997033401131153e-05  -1.9589259852491081e-04  -3.7553175897818441e-04  -5.9333050029818221e-04  -8.1718341785098350e-04  -1.0197584630038730e-03  -1.1849247217411529e-03  -1.3072657496562752e-03  -1.3883194093263467e-03  -1.4331054570339264e-03  -1.4481286226398493e-03  -1.4403018347331710e-03  -1.4162297712224724e-03  -1.3817435181363144e-03  -1.3416915240364862e-03  -1.2999175859700134e-03  -1.2593329043988715e-03  -1.2220298193113019e-03  -1.1894217523588599e-03  -1.1624002014890555e-03  -1.1414905042949819e-03  -1.1269842029610802e-03  -1.1190338674816507e-03  -1.1177095478876308e-03  -1.1230250528461796e-03  -1.1349424151712883e-03  -1.1533559774380621e-03  -1.1780493146709091e-03  -1.2086153332850440e-03  -1.2443360390089037e-03  -1.2840314275854815e-03  -1.3258973171140179e-03  -1.3673530057320121e-03  -1.4049141024828930e-03  -1.4341123427452623e-03  -1.4495049146391647e-03  -1.4448315558343414e-03  -1.4133594973137753e-03  -1.3483522456406989e-03  -1.2438679459506451e-03  -1.0964977232446648e-03  -9.0841645635121213e-04  -6.9122537028916355e-04  -4.6744401427517850e-04  -2.6757129062986379e-04  -1.2075765412722719e-04  -3.8151233385310150e-05  -5.4724987433591554e-06  -5.2681828279101928e-08  -9.3753761164382559e-06  -7.5513633259143454e-05  -3.0068192592653479e-04  -7.8993998149142007e-04  -1.5625821708176589e-03  -2.5316492586775819e-03  -3.5552070198541386e-03  -4.5024154849320945e-03  -5.2897955072016235e-03  -5.8845756286255539e-03  -6.2888673005795865e-03  -6.5228901338900613e-03  -6.6150246384789595e-03  -6.5965359663004474e-03  -6.4980059373361014e-03  -6.3468735933191181e-03  -6.1662229822117172e-03  -5.9745439711687519e-03  -5.7859926569528803e-03  -5.6108635964099351e-03  -5.4561937595101855e-03  -5.3264686642790892e-03  -5.2243532006616238e-03  -5.1513361203256733e-03  -5.1082061165250697e-03  -5.0953431835040787e-03  -5.1128613137027589e-03  -5.1606482523047824e-03  -5.2383185305435523e-03  -5.3450531545309920e-03  -5.4792764078581899e-03  -5.6381409131378690e-03  -5.8168518744626529e-03  -6.0079229799741051e-03  -6.2004692394152620e-03  -6.3796008585919649e-03  -6.5259974035400013e-03  -6.6158230527968917e-03  -6.6213521421064720e-03  -6.5123799302292396e-03  -6.2582061070030805e-03  -5.8304788367447048e-03  -5.2098913457160308e-03  -4.3979504350234525e-03  -3.4350368448053856e-03  -2.4115453962442628e-03  -1.4579506444298436e-03  -7.1387656651280304e-04  -2.6075098699088629e-04  -6.2259187944214135e-05  -3.5998426846745005e-06  -2.7043130621960607e-05  -1.4685818970771678e-04  -4.3687121216210665e-04  -1.0517009127827095e-03  -1.9932272857098210e-03  -3.1419021848990126e-03  -4.3328519082973492e-03  -5.4193096060292534e-03  -6.3113867435124682e-03  -6.9786517209325565e-03  -7.4274193853676980e-03  -7.6811815906089251e-03  -7.7719733069500198e-03  -7.7357739721561260e-03  -7.6081671722375687e-03  -7.4210482768896479e-03  -7.2011580103902529e-03  -6.9699085950874111e-03  -6.7437112059696627e-03  -6.5344636397718352e-03  -6.3501986599640188e-03  -6.1959148072280174e-03  -6.0744844580457582e-03  -5.9874609342790647e-03  -5.9356550824676106e-03  -5.9194630980486324e-03  -5.9390116276293601e-03  -5.9941984498583225e-03  -6.0846570371371929e-03  -6.2096018284602331e-03  -6.3674691845152882e-03  -6.5552973319674751e-03  -6.7678849220534744e-03  -6.9968824735136019e-03  -7.2299667001410007e-03  -7.4501556830243254e-03  -7.6353158645963721e-03  -7.7579890126915031e-03  -7.7862101688442875e-03  -7.6851000552092446e-03  -7.4200782360572901e-03  -6.9583151344734459e-03  -6.2750839143131693e-03  -5.3642845926141162e-03  -4.2630633894860217e-03  -3.0709147004811636e-03  -1.9274429070783251e-03  -9.9320647499143047e-04  -3.9760858697229979e-04  -1.3057641498674072e-04  -1.6352373450522451e-05  -4.4246924176174475e-05  -2.4898870736632026e-04  -6.5021376852865702e-04  -1.4061562755053698e-03  -2.4500665323503716e-03  -3.6388464886346621e-03  -4.8252786621224650e-03  -5.8718340667025847e-03  -6.7044626015126214e-03  -7.3124728307961831e-03  -7.7101704554769198e-03  -7.9197739460375085e-03  -7.9711699956267288e-03  -7.9000134848981069e-03  -7.7421789761210223e-03  -7.5294343282194002e-03  -7.2880875801526858e-03  -7.0391802891928068e-03  -6.7988781499079241e-03  -6.5788009845717758e-03  -6.3865463717377004e-03  -6.2265527099807354e-03  -6.1011464567205520e-03  -6.0114743693420051e-03  -5.9581164646441967e-03  -5.9413718688929159e-03  -5.9613437090485447e-03  -6.0179581568259363e-03  -6.1109654085713351e-03  -6.2398506267899367e-03  -6.4035064593779834e-03  -6.5995553732144750e-03  -6.8233695154060045e-03  -7.0670470442201552e-03  -7.3185754177419139e-03  -7.5612792844762132e-03  -7.7733245554531304e-03  -7.9273082648733725e-03  -7.9909938479351232e-03  -7.9296882009350991e-03  -7.7126870882638929e-03  -7.3075122675573681e-03  -6.6859955813032947e-03  -5.8324204364819414e-03  -4.7632871980137761e-03  -3.5747986641081132e-03  -2.3867226640549820e-03  -1.3308390703337303e-03  -5.7858548397896070e-04  -2.1185744035771207e-04  -3.4269095113677534e-05  -4.1157696528598300e-05  -3.7453437090684722e-04  -1.0705941525946303e-03  -2.1164082884550742e-03  -3.2642466694741035e-03  -4.4321212531909992e-03  -5.5605182541844898e-03  -6.5000831000195580e-03  -7.2092478925884808e-03  -7.7125415976665428e-03  -8.0279176009833524e-03  -8.1687280015743553e-03  -8.1596818394688349e-03  -8.0363913094612036e-03  -7.8352303399407304e-03  -7.5871497193510913e-03  -7.3171616858396888e-03  -7.0453934967149292e-03  -6.7874933988207493e-03  -6.5545662393909727e-03  -6.3534268621581970e-03  -6.1875257136528332e-03  -6.0582608098297660e-03  -5.9661292243925398e-03  -5.9113799350517943e-03  -5.8941966561417017e-03  -5.9146570738446511e-03  -5.9727065526103563e-03  -6.0682295268124032e-03  -6.2010970508658263e-03  -6.3709235094452097e-03  -6.5763071692996646e-03  -6.8135981180367780e-03  -7.0756299467834233e-03  -7.3509659979592631e-03  -7.6236539173693829e-03  -7.8724931415451622e-03  -8.0706637269001326e-03  -8.1857050519039392e-03  -8.1846723873893155e-03  -8.0397283552985505e-03  -7.7233145223427361e-03  -7.2094626242102163e-03  -6.4894272228579004e-03  -5.5106629140409110e-03  -4.3838162061568559e-03  -3.2383858962229711e-03  -2.0501376378881859e-03  -9.5928965336045764e-04  -2.8020843024096606e-04  -4.0951209412675041e-05  -4.5274855891551325e-05  -7.0875136120042187e-04  -2.6700726884433747e-03  -5.0135235301176284e-03  -6.0019103027965232e-03  -6.3996145378614070e-03  -6.9046932667557095e-03  -7.4335085744704913e-03  -7.8866833654663796e-03  -8.2319523548634189e-03  -8.4405209502632483e-03  -8.4915899889524468e-03  -8.4010717902800285e-03  -8.2075550456187432e-03  -7.9491653976023566e-03  -7.6549890734101617e-03  -7.3476425250757829e-03  -7.0459824912509367e-03  -6.7652028573512843e-03  -6.5158936820856987e-03  -6.3037801854558748e-03  -6.1308102242051358e-03  -5.9969872422090233e-03  -5.9019085476041877e-03  -5.8454483315239451e-03  -5.8277204166368940e-03  -5.8487987617649850e-03  -5.9086055160568109e-03  -6.0071107518614251e-03  -6.1446428723321705e-03  -6.3218347867952333e-03  -6.5387563929285930e-03  -6.7932307747541002e-03  -7.0790295193631485e-03  -7.3854299706257193e-03  -7.6971121199277620e-03  -7.9941003099149588e-03  -8.2521441410897938e-03  -8.4361535258370198e-03  -8.5129637455601259e-03  -8.4481649595041734e-03  -8.2909466272691190e-03  -7.9816918463100194e-03  -7.6428397530651981e-03  -7.2020880707517740e-03  -6.8550061538161285e-03  -6.3454646051058850e-03  -4.3711145777724407e-03  -1.8909377055022570e-03  -3.8656739234542567e-04  -2.7491232879956291e-05  -5.9560965143097186e-04  -3.0388738441561799e-03  -1.0718862950246674e-02  -1.9682804434791742e-02  -2.2423917865479155e-02  -1.8573714525753585e-02  -1.3468972185237890e-02  -1.0057954515214570e-02  -8.9572775265608379e-03  -8.9038762547673875e-03  -8.9580640679649392e-03  -8.8954513260628022e-03  -8.6981535210798981e-03  -8.4141691119114497e-03  -8.0849364214106278e-03  -7.7344702230581460e-03  -7.3811303767964834e-03  -7.0423200600955279e-03  -6.7332546079290111e-03  -6.4642602649114074e-03  -6.2395817452156810e-03  -6.0588842014526866e-03  -5.9201123219473767e-03  -5.8216924448162687e-03  -5.7631824521974170e-03  -5.7447832673749206e-03  -5.7666272815711118e-03  -5.8285127538069397e-03  -5.9303243918969861e-03  -6.0728301097795079e-03  -6.2580391707039934e-03  -6.4882189140083720e-03  -6.7634440901266938e-03  -7.0785283543524794e-03  -7.4232010772194877e-03  -7.7824522666423736e-03  -8.1407561038471955e-03  -8.4751431462682970e-03  -8.7431652083799286e-03  -8.9228002369775294e-03  -8.9795746100222243e-03  -9.1737429710383924e-03  -9.5210138293061516e-03  -1.1075732065739493e-02  -1.3792946992281717e-02  -1.7926659945953265e-02  -2.2282967705534115e-02  -2.0288555892558242e-02  -1.1918463778349920e-02  -2.5285047890604914e-03  -9.3240615694231691e-05  -1.8131850439903347e-03  -1.8767052571857575e-02  -3.1524305887067013e-02  -3.1507879033716761e-02  -3.1499556201466952e-02  -3.1507410706293516e-02  -3.1478648314391552e-02  -2.5035838438676995e-02  -1.4410567649489822e-02  -1.0401355402412519e-02  -9.6696043831042463e-03  -9.3993096779806991e-03  -9.0496598193492046e-03  -8.6511237752083300e-03  -8.2391742443856247e-03  -7.8235285109489374e-03  -7.4156577082213002e-03  -7.0319778964879603e-03  -6.6889710449049523e-03  -6.3974276000155665e-03  -6.1595055413059619e-03  -5.9712854829806414e-03  -5.8276526192038887e-03  -5.7255972633379728e-03  -5.6646311875837374e-03  -5.6453977239094505e-03  -5.6682200276309980e-03  -5.7325749136094865e-03  -5.8378602497287813e-03  -5.9850827814731476e-03  -6.1780592819658071e-03  -6.4223320001066293e-03  -6.7215823668449227e-03  -7.0717065668259539e-03  -7.4618189413282777e-03  -7.8781508296670542e-03  -8.3098131246097193e-03  -8.7299675950259573e-03  -9.1325378508030144e-03  -9.4866639265774495e-03  -9.8525546548188497e-03  -1.1605830084312613e-02  -1.5084467231966318e-02  -2.3243404407446360e-02  -3.1469319060050571e-02  -3.1521521916963800e-02  -3.1497879622554022e-02  -3.1499661886793665e-02  -3.1505918166343919e-02  -1.9165649253129014e-02  -1.7580511066356344e-03  -9.4109135021922634e-03  -3.1524314456900140e-02  -3.1527620695695674e-02  -3.1526633419773388e-02  -3.1526949539629756e-02  -3.1532997936795037e-02  -3.1520262904148985e-02  -3.1482999426642087e-02  -3.1470068379917525e-02  -1.9262514202099401e-02  -1.2035363087819195e-02  -1.0164041784121563e-02  -9.4656779455120493e-03  -8.9104926979642358e-03  -8.4087731053675771e-03  -7.9204997993937310e-03  -7.4493236036371141e-03  -7.0118985813838637e-03  -6.6285300499375000e-03  -6.3122048900239886e-03  -6.0618317162003223e-03  -5.8675923371500288e-03  -5.7197661675199860e-03  -5.6137419373552275e-03  -5.5496819836415171e-03  -5.5293540851368448e-03  -5.5535181336225465e-03  -5.6209911371647488e-03  -5.7298649688288300e-03  -5.8808275146499259e-03  -6.0799163004118468e-03  -6.3376410339018576e-03  -6.6639832726233207e-03  -7.0565935252073532e-03  -7.4988742145206165e-03  -7.9823828553139756e-03  -8.4888941796575444e-03  -9.0433430610308459e-03  -9.7031529993263262e-03  -1.0603800294379311e-02  -1.2922077918723110e-02  -1.9226535390338990e-02  -3.1407125831033944e-02  -3.1519452180343376e-02  -3.1523225490382382e-02  -3.1530759696180577e-02  -3.1528054848829659e-02  -3.1523104314375820e-02  -3.1525949721156965e-02  -3.1526616109659435e-02  -7.1412477058201635e-03  -1.5739979234290807e-02  -3.1510107361938648e-02  -3.1518351776922617e-02  -3.1517860245835860e-02  -3.1517623290026504e-02  -3.1518838627392284e-02  -3.1525146642386002e-02  -3.1527886621061020e-02  -3.1507463030092914e-02  -3.1527451824579319e-02  -2.4664383043690660e-02  -1.3795029964017201e-02  -1.0199743884832000e-02  -9.2201859674773661e-03  -8.5997969880985282e-03  -8.0260898268921174e-03  -7.4815224599582971e-03  -6.9788061721361653e-03  -6.5466156662237233e-03  -6.2043166301231053e-03  -5.9447461742632626e-03  -5.7479460978145493e-03  -5.5972164785381504e-03  -5.4865079368896456e-03  -5.4181661672614194e-03  -5.3962765635538201e-03  -5.4224450717620509e-03  -5.4943397818044849e-03  -5.6071742201184932e-03  -5.7600321149755135e-03  -5.9614319053285349e-03  -6.2298651915027132e-03  -6.5855760165291046e-03  -7.0324195353200954e-03  -7.5303986885989207e-03  -8.1034365434076300e-03  -8.6995999507789145e-03  -9.5416396836164770e-03  -1.1206066391694717e-02  -1.4517865837066650e-02  -2.3067160720526107e-02  -3.1488483498693279e-02  -3.1504386851575125e-02  -3.1528267734930185e-02  -3.1521099990099721e-02  -3.1515733760135334e-02  -3.1517721645865776e-02  -3.1519557468022721e-02  -3.1508064047620105e-02  -3.1503945198520747e-02  -1.5758592063932025e-02  -1.8331485213900101e-02  -3.1579762321251308e-02  -3.1504544225230365e-02  -3.1513454013955597e-02  -3.1512723609541202e-02  -3.1510619863778157e-02  -3.1510403009096667e-02  -3.1516230419599583e-02  -3.1529964333224907e-02  -3.1529009026327069e-02  -3.1535290816563033e-02  -3.0517724551856959e-02  -1.5603919337368252e-02  -1.0293168388484266e-02  -8.9287611219258326e-03  -8.1595256976763810e-03  -7.5203335879695478e-03  -6.9316477130454499e-03  -6.4362251355435862e-03  -6.0687984039717157e-03  -5.8072245278980045e-03  -5.6141005076446159e-03  -5.4622159370769658e-03  -5.3449545797811951e-03  -5.2700716792989880e-03  -5.2458782142389615e-03  -5.2751648875613731e-03  -5.3541357519502298e-03  -5.4722372665726672e-03  -5.6242298823338376e-03  -5.8213840596804253e-03  -6.0946161565891112e-03  -6.4785570964776083e-03  -7.0107982283372228e-03  -7.5788593423497235e-03  -8.3027871569739554e-03  -9.1836806149744911e-03  -1.1669667506619156e-02  -1.6367461167640970e-02  -2.7559415784601606e-02  -3.1550836432910824e-02  -3.1539034833327616e-02  -3.1518661115683820e-02  -3.1511978722799601e-02  -3.1514316046593431e-02  -3.1512156896739439e-02  -3.1510397095077781e-02  -3.1512621125575527e-02  -3.1503924042208205e-02  -3.1805877898238126e-02  -1.6623244054425678e-02  -2.8533176590915484e-02  -4.6148738875121435e-02  -3.5632329495936359e-02  -3.1522404981430517e-02  -3.1511980570493835e-02  -3.1510178305115891e-02  -3.1507680476571723e-02  -3.1506074152945457e-02  -3.1511577459023922e-02  -3.1528505638093493e-02  -3.1527889919242900e-02  -3.1494275484374806e-02  -3.1510744177446932e-02  -1.9126435785547759e-02  -1.1379939518907124e-02  -8.7046543527013118e-03  -7.6937149986794264e-03  -6.9142982778821992e-03  -6.3099443159080918e-03  -5.9151822763067316e-03  -5.6595948628036120e-03  -5.4778802283527526e-03  -5.3253687505137861e-03  -5.1963866441115227e-03  -5.1107529386293709e-03  -5.0831326568606967e-03  -5.1169656788453664e-03  -5.2092081103926272e-03  -5.3378732127190801e-03  -5.4881967114646154e-03  -5.6759669407895237e-03  -5.9499380010677493e-03  -6.3699257850947889e-03  -7.0802646031836959e-03  -7.8573485717554920e-03  -9.4217432775761511e-03  -1.2448967414559723e-02  -1.8991588451097600e-02  -3.1443757483143736e-02  -3.1491680918551847e-02  -3.1535147417347767e-02  -3.1520274324650432e-02  -3.1510632592524970e-02  -3.1507899880113030e-02  -3.1508988646485311e-02  -3.1509683322142990e-02  -3.1511453187768872e-02  -3.1529417507313071e-02  -3.7738755301758624e-02  -4.7928448603995422e-02  -2.5075162293380755e-02  -3.5080452816561226e-02  -6.0547516880009401e-02  -4.6021249549641909e-02  -3.5291437134589244e-02  -3.1520673769301316e-02  -3.1513491046286465e-02  -3.1509115399112261e-02  -3.1506324784857730e-02  -3.1503996506456668e-02  -3.1507172813968969e-02  -3.1520554335365075e-02  -3.1521950356437692e-02  -3.1503790668747006e-02  -3.1537227066609039e-02  -2.6642752075459034e-02  -1.5742168203288314e-02  -1.0378360995337791e-02  -7.8720719506237390e-03  -6.6761563755164807e-03  -6.0647386406192253e-03  -5.7185297958921681e-03  -5.4992991084007389e-03  -5.3154548945719407e-03  -5.1521873614851993e-03  -5.0455960312711951e-03  -5.0130292503666549e-03  -5.0555649566790721e-03  -5.1792747026494258e-03  -5.3476519846489346e-03  -5.5394152696455375e-03  -5.7949562640316346e-03  -6.2121080294617551e-03  -6.9583096035638996e-03  -8.7164220811047060e-03  -1.1289048361861492e-02  -1.5555298941981165e-02  -2.5197880948979463e-02  -3.1512856935029393e-02  -3.1501400405257583e-02  -3.1521407479221004e-02  -3.1510055670486335e-02  -3.1509909245191661e-02  -3.1505847505049658e-02  -3.1506267634044759e-02  -3.1510338835553875e-02  -3.1512270913359522e-02  -3.1529472353624938e-02  -3.6360053076297687e-02  -4.6460745584361363e-02  -6.0499872901439579e-02  -3.3666418520608386e-02  -3.4013943829303145e-02  -6.2913134587192221e-02  -5.0482797939269429e-02  -3.9846685753123626e-02  -3.2803908554978160e-02  -3.1517252839206318e-02  -3.1513464350940885e-02  -3.1508723203285995e-02  -3.1505341436025992e-02  -3.1502143103844117e-02  -3.1502378989955442e-02  -3.1515682675435676e-02  -3.1529693500099425e-02  -3.1516643139590871e-02  -3.1497827910510694e-02  -3.1513245265893539e-02  -2.8260757275221128e-02  -1.9397737557236810e-02  -1.4293443761239265e-02  -1.1652696104229969e-02  -1.0089720713034852e-02  -9.1192725225248787e-03  -8.4314087200951082e-03  -7.9603228448750646e-03  -7.7274857228150258e-03  -7.6750566021073930e-03  -7.7828108324558797e-03  -8.1039568971489739e-03  -8.5787939668664163e-03  -9.2064489701130965e-03  -1.0161148785873129e-02  -1.1695700597822448e-02  -1.4223180404282488e-02  -1.8964491194231829e-02  -2.7401948379423103e-02  -3.1409848187870432e-02  -3.1494699278511118e-02  -3.1544230279535915e-02  -3.1527198590786246e-02  -3.1505160017947786e-02  -3.1506275575174610e-02  -3.1504925628782821e-02  -3.1505456832172714e-02  -3.1510055530601655e-02  -3.1512111116114856e-02  -3.1519965742267120e-02  -3.3329673574179278e-02  -3.9794119769977050e-02  -4.9832120212060738e-02  -6.2142654724002662e-02  -3.5179805167786148e-02  -2.5772798713195710e-02  -5.2480947893121133e-02  -4.5935276004048654e-02  -3.9536318887500206e-02  -3.4230667774459746e-02  -3.1533233010765611e-02  -3.1519170335039967e-02  -3.1512848164093901e-02  -3.1508041623547846e-02  -3.1504543167956707e-02  -3.1500521154914196e-02  -3.1500028458712359e-02  -3.1512631258138399e-02  -3.1529969995669836e-02  -3.1530161430179074e-02  -3.1514884313680380e-02  -3.1498447077710427e-02  -3.1535847282964706e-02  -3.1556054699116633e-02  -3.1466365422022871e-02  -3.1477724340300613e-02  -3.1442366903561461e-02  -3.0985397334088487e-02  -2.9798175659993171e-02  -2.8992181822327951e-02  -2.8734052183077837e-02  -2.8945393564522234e-02  -2.9698413103204313e-02  -3.0881294841972780e-02  -3.1425308286614224e-02  -3.1494574668690316e-02  -3.1452289327983114e-02  -3.1533093495332891e-02  -3.1577072658894347e-02  -3.1503966807505841e-02  -3.1517554313973073e-02  -3.1530097473053700e-02  -3.1519400398028780e-02  -3.1508962564300969e-02  -3.1505077169403144e-02  -3.1503124858676602e-02  -3.1504906484568759e-02  -3.1508593791880771e-02  -3.1514708664457741e-02  -3.1512339964749225e-02  -3.1540495612092725e-02  -3.4120619134734104e-02  -3.8780511427770004e-02  -4.4791070691707464e-02  -5.1201717784151751e-02  -2.9052842133498891e-02  -1.6696787232393651e-02  -3.6181461453024658e-02  -3.5932308384223628e-02  -3.4726113902733856e-02  -3.2991136481427534e-02  -3.1560913824211695e-02  -3.1520229564024532e-02  -3.1519184023518103e-02  -3.1512507011739285e-02  -3.1507574467979915e-02  -3.1504127766141865e-02  -3.1500354414702336e-02  -3.1498724708079393e-02  -3.1504991615725279e-02  -3.1517666855713854e-02  -3.1528092482537420e-02  -3.1533058169056709e-02  -3.1539059590815738e-02  -3.1545494987103052e-02  -3.1533208165597910e-02  -3.1524595267234855e-02  -3.1533581882897434e-02  -3.1529476671899828e-02  -3.1521323782813408e-02  -3.1521455087810422e-02  -3.1520000448155193e-02  -3.1519677723623428e-02  -3.1520174349136225e-02  -3.1521536804216627e-02  -3.1531132921360193e-02  -3.1537759357152487e-02  -